opt-title                                                               
Freq      RB3LYP                                                      GenECP              
Number of atoms                            I               12
Info1-9                                    I   N=           9
          46          40        1002           0           0         101
           6          18        -502
Full Title                                 C   N=           1
opt-title   
Route                                      C   N=           6
#P Geom=AllCheck Guess=TCheck SCRF=Check Test GenChk RB3LYP/
GenECP Freq 
Charge                                     I                0
Multiplicity                               I                1
Number of electrons                        I               42
Number of alpha electrons                  I               21
Number of beta electrons                   I               21
Number of basis functions                  I              120
Number of independent functions            I              120
Number of point charges in /Mol/           I                0
Number of translation vectors              I                0
Atomic numbers                             I   N=          12
           6           6           6           6           6           6
           1           1           1           1           1           1
Nuclear charges                            R   N=          12
  6.00000000E+00  6.00000000E+00  6.00000000E+00  6.00000000E+00  6.00000000E+00
  6.00000000E+00  1.00000000E+00  1.00000000E+00  1.00000000E+00  1.00000000E+00
  1.00000000E+00  1.00000000E+00
Current cartesian coordinates              R   N=          36
 -3.70511105E-01  1.58651221E-01  1.14062675E-04  2.27300998E+00  1.58518677E-01
  9.56237079E-04  3.59488584E+00  2.44780957E+00 -8.90749171E-05  2.27323983E+00
  4.73723189E+00 -1.97589054E-03 -3.70281271E-01  4.73736449E+00 -2.81775510E-03
 -1.69215715E+00  2.44807357E+00 -1.77312836E-03 -1.39792745E+00 -1.62067814E+00
  9.25941358E-04  3.30024875E+00 -1.62091262E+00  2.42159262E-03  5.64953814E+00
  2.44770675E+00  5.65589563E-04  3.30065666E+00  6.51656095E+00 -2.78741686E-03
 -1.39752074E+00  6.51679540E+00 -4.28283590E-03 -3.74680946E+00  2.44817717E+00
 -2.42749278E-03
Number of symbols in /Mol/                 I                0
Redundant internal dimensions              I   N=           4
          54          12          18          24
Redundant internal coordinate indices      I   N=         216
           1           2           0           0           1           6
           0           0           1           7           0           0
           2           3           0           0           2           8
           0           0           3           4           0           0
           3           9           0           0           4           5
           0           0           4          10           0           0
           5           6           0           0           5          11
           0           0           6          12           0           0
           2           1           6           0           2           1
           7           0           6           1           7           0
           1           2           3           0           1           2
           8           0           3           2           8           0
           2           3           4           0           2           3
           9           0           4           3           9           0
           3           4           5           0           3           4
          10           0           5           4          10           0
           4           5           6           0           4           5
          11           0           6           5          11           0
           1           6           5           0           1           6
          12           0           5           6          12           0
           6           1           2           3           6           1
           2           8           7           1           2           3
           7           1           2           8           2           1
           6           5           2           1           6          12
           7           1           6           5           7           1
           6          12           1           2           3           4
           1           2           3           9           8           2
           3           4           8           2           3           9
           2           3           4           5           2           3
           4          10           9           3           4           5
           9           3           4          10           3           4
           5           6           3           4           5          11
          10           4           5           6          10           4
           5          11           4           5           6           1
           4           5           6          12          11           5
           6           1          11           5           6          12
Redundant internal coordinates             R   N=          54
  2.64352122E+00  2.64352161E+00  2.05465276E+00  2.64352221E+00  2.05465262E+00
  2.64352157E+00  2.05465241E+00  2.64352124E+00  2.05465275E+00  2.64352224E+00
  2.05465263E+00  2.05465242E+00  2.09439535E+00  2.09439535E+00  2.09439461E+00
  2.09439491E+00  2.09439628E+00  2.09439411E+00  2.09439505E+00  2.09439501E+00
  2.09439524E+00  2.09439536E+00  2.09439434E+00  2.09439560E+00  2.09439489E+00
  2.09439669E+00  2.09439372E+00  2.09439504E+00  2.09439563E+00  2.09439463E+00
 -1.29047841E-07 -3.14159184E+00  3.14159233E+00  6.15654238E-07 -1.70551585E-07
 -3.14159254E+00 -3.14159263E+00  3.13986950E-07  2.92381896E-07  3.14159260E+00
  3.14159200E+00 -9.93361074E-07 -1.57699067E-07  3.14159213E+00 -3.14159247E+00
 -1.78813934E-07 -1.42148018E-07  3.14159185E+00 -3.14159243E+00 -4.36733690E-07
  3.05746265E-07 -3.14159263E+00 -3.14159169E+00  6.79597512E-07
ZRed-IntVec                                I   N=          54
           0           0           0           0           0           0
           0           0           0           0           0           0
           0           0           0           0           0           0
           0           0           0           0           0           0
           0           0           0           0           0           0
           0           0           0           0           0           0
           0           0           0           0           0           0
           0           0           0           0           0           0
           0           0           0           0           0           0
ZRed-FPVec                                 R   N=          54
  0.00000000E+00  0.00000000E+00  0.00000000E+00  0.00000000E+00  0.00000000E+00
  0.00000000E+00  0.00000000E+00  0.00000000E+00  0.00000000E+00  0.00000000E+00
  0.00000000E+00  0.00000000E+00  0.00000000E+00  0.00000000E+00  0.00000000E+00
  0.00000000E+00  0.00000000E+00  0.00000000E+00  0.00000000E+00  0.00000000E+00
  0.00000000E+00  0.00000000E+00  0.00000000E+00  0.00000000E+00  0.00000000E+00
  0.00000000E+00  0.00000000E+00  0.00000000E+00  0.00000000E+00  0.00000000E+00
  0.00000000E+00  0.00000000E+00  0.00000000E+00  0.00000000E+00  0.00000000E+00
  0.00000000E+00  0.00000000E+00  0.00000000E+00  0.00000000E+00  0.00000000E+00
  0.00000000E+00  0.00000000E+00  0.00000000E+00  0.00000000E+00  0.00000000E+00
  0.00000000E+00  0.00000000E+00  0.00000000E+00  0.00000000E+00  0.00000000E+00
  0.00000000E+00  0.00000000E+00  0.00000000E+00  0.00000000E+00
ZRed-Constraint1                           R   N=          54
  2.64352122E+00  2.64352161E+00  2.05465276E+00  2.64352221E+00  2.05465262E+00
  2.64352157E+00  2.05465241E+00  2.64352124E+00  2.05465275E+00  2.64352224E+00
  2.05465263E+00  2.05465242E+00  2.09439535E+00  2.09439535E+00  2.09439461E+00
  2.09439491E+00  2.09439628E+00  2.09439411E+00  2.09439505E+00  2.09439501E+00
  2.09439524E+00  2.09439536E+00  2.09439434E+00  2.09439560E+00  2.09439489E+00
  2.09439669E+00  2.09439372E+00  2.09439504E+00  2.09439563E+00  2.09439463E+00
 -1.29047841E-07 -3.14159184E+00  3.14159233E+00  6.15654238E-07 -1.70551585E-07
 -3.14159254E+00 -3.14159263E+00  3.13986950E-07  2.92381896E-07  3.14159260E+00
  3.14159200E+00 -9.93361074E-07 -1.57699067E-07  3.14159213E+00 -3.14159247E+00
 -1.78813934E-07 -1.42148018E-07  3.14159185E+00 -3.14159243E+00 -4.36733690E-07
  3.05746265E-07 -3.14159263E+00 -3.14159169E+00  6.79597512E-07
ZRed-Constraint2                           R   N=          54
  2.64352122E+00  2.64352161E+00  2.05465276E+00  2.64352221E+00  2.05465262E+00
  2.64352157E+00  2.05465241E+00  2.64352124E+00  2.05465275E+00  2.64352224E+00
  2.05465263E+00  2.05465242E+00  2.09439535E+00  2.09439535E+00  2.09439461E+00
  2.09439491E+00  2.09439628E+00  2.09439411E+00  2.09439505E+00  2.09439501E+00
  2.09439524E+00  2.09439536E+00  2.09439434E+00  2.09439560E+00  2.09439489E+00
  2.09439669E+00  2.09439372E+00  2.09439504E+00  2.09439563E+00  2.09439463E+00
 -1.29047841E-07 -3.14159184E+00  3.14159233E+00  6.15654238E-07 -1.70551585E-07
 -3.14159254E+00 -3.14159263E+00  3.13986950E-07  2.92381896E-07  3.14159260E+00
  3.14159200E+00 -9.93361074E-07 -1.57699067E-07  3.14159213E+00 -3.14159247E+00
 -1.78813934E-07 -1.42148018E-07  3.14159185E+00 -3.14159243E+00 -4.36733690E-07
  3.05746265E-07 -3.14159263E+00 -3.14159169E+00  6.79597512E-07
Force Field                                I                0
Atom Types                                 C   N=          12
                                                            
                                                            
                        
Int Atom Types                             I   N=          12
           0           0           0           0           0           0
           0           0           0           0           0           0
MM charges                                 R   N=          12
  0.00000000E+00  0.00000000E+00  0.00000000E+00  0.00000000E+00  0.00000000E+00
  0.00000000E+00  0.00000000E+00  0.00000000E+00  0.00000000E+00  0.00000000E+00
  0.00000000E+00  0.00000000E+00
Integer atomic weights                     I   N=          12
          12          12          12          12          12          12
           1           1           1           1           1           1
Real atomic weights                        R   N=          12
  1.20000000E+01  1.20000000E+01  1.20000000E+01  1.20000000E+01  1.20000000E+01
  1.20000000E+01  1.00782504E+00  1.00782504E+00  1.00782504E+00  1.00782504E+00
  1.00782504E+00  1.00782504E+00
Atom fragment info                         I   N=          12
           0           0           0           0           0           0
           0           0           0           0           0           0
Atom residue num                           I   N=          12
           0           0           0           0           0           0
           0           0           0           0           0           0
Nuclear spins                              I   N=          12
           0           0           0           0           0           0
           1           1           1           1           1           1
Nuclear ZEff                               R   N=          12
 -3.60000000E+00 -3.60000000E+00 -3.60000000E+00 -3.60000000E+00 -3.60000000E+00
 -3.60000000E+00 -1.00000000E+00 -1.00000000E+00 -1.00000000E+00 -1.00000000E+00
 -1.00000000E+00 -1.00000000E+00
Nuclear ZNuc                               R   N=          12
  6.00000000E+00  6.00000000E+00  6.00000000E+00  6.00000000E+00  6.00000000E+00
  6.00000000E+00  1.00000000E+00  1.00000000E+00  1.00000000E+00  1.00000000E+00
  1.00000000E+00  1.00000000E+00
Nuclear QMom                               R   N=          12
  0.00000000E+00  0.00000000E+00  0.00000000E+00  0.00000000E+00  0.00000000E+00
  0.00000000E+00  0.00000000E+00  0.00000000E+00  0.00000000E+00  0.00000000E+00
  0.00000000E+00  0.00000000E+00
Nuclear GFac                               R   N=          12
  0.00000000E+00  0.00000000E+00  0.00000000E+00  0.00000000E+00  0.00000000E+00
  0.00000000E+00  2.79284600E+00  2.79284600E+00  2.79284600E+00  2.79284600E+00
  2.79284600E+00  2.79284600E+00
MicOpt                                     I   N=          12
          -1          -1          -1          -1          -1          -1
          -1          -1          -1          -1          -1          -1
Number of residues                         I                0
Number of secondary structures             I                0
Number of contracted shells                I               42
Number of primitive shells                 I               96
Pure/Cartesian d shells                    I                0
Pure/Cartesian f shells                    I                0
Highest angular momentum                   I                2
Largest degree of contraction              I                6
Shell types                                I   N=          42
           0          -1          -1          -1          -2           0
          -1          -1          -1          -2           0          -1
          -1          -1          -2           0          -1          -1
          -1          -2           0          -1          -1          -1
          -2           0          -1          -1          -1          -2
           0           0           0           0           0           0
           0           0           0           0           0           0
Number of primitives per shell             I   N=          42
           6           3           1           1           1           6
           3           1           1           1           6           3
           1           1           1           6           3           1
           1           1           6           3           1           1
           1           6           3           1           1           1
           3           1           3           1           3           1
           3           1           3           1           3           1
Shell to atom map                          I   N=          42
           1           1           1           1           1           2
           2           2           2           2           3           3
           3           3           3           4           4           4
           4           4           5           5           5           5
           5           6           6           6           6           6
           7           7           8           8           9           9
          10          10          11          11          12          12
Primitive exponents                        R   N=          96
  3.04752488E+03  4.57369518E+02  1.03948685E+02  2.92101553E+01  9.28666296E+00
  3.16392696E+00  7.86827235E+00  1.88128854E+00  5.44249258E-01  1.68714478E-01
  4.38000000E-02  8.00000000E-01  3.04752488E+03  4.57369518E+02  1.03948685E+02
  2.92101553E+01  9.28666296E+00  3.16392696E+00  7.86827235E+00  1.88128854E+00
  5.44249258E-01  1.68714478E-01  4.38000000E-02  8.00000000E-01  3.04752488E+03
  4.57369518E+02  1.03948685E+02  2.92101553E+01  9.28666296E+00  3.16392696E+00
  7.86827235E+00  1.88128854E+00  5.44249258E-01  1.68714478E-01  4.38000000E-02
  8.00000000E-01  3.04752488E+03  4.57369518E+02  1.03948685E+02  2.92101553E+01
  9.28666296E+00  3.16392696E+00  7.86827235E+00  1.88128854E+00  5.44249258E-01
  1.68714478E-01  4.38000000E-02  8.00000000E-01  3.04752488E+03  4.57369518E+02
  1.03948685E+02  2.92101553E+01  9.28666296E+00  3.16392696E+00  7.86827235E+00
  1.88128854E+00  5.44249258E-01  1.68714478E-01  4.38000000E-02  8.00000000E-01
  3.04752488E+03  4.57369518E+02  1.03948685E+02  2.92101553E+01  9.28666296E+00
  3.16392696E+00  7.86827235E+00  1.88128854E+00  5.44249258E-01  1.68714478E-01
  4.38000000E-02  8.00000000E-01  1.87311370E+01  2.82539436E+00  6.40121692E-01
  1.61277759E-01  1.87311370E+01  2.82539436E+00  6.40121692E-01  1.61277759E-01
  1.87311370E+01  2.82539436E+00  6.40121692E-01  1.61277759E-01  1.87311370E+01
  2.82539436E+00  6.40121692E-01  1.61277759E-01  1.87311370E+01  2.82539436E+00
  6.40121692E-01  1.61277759E-01  1.87311370E+01  2.82539436E+00  6.40121692E-01
  1.61277759E-01
Contraction coefficients                   R   N=          96
  1.83473713E-03  1.40373228E-02  6.88426223E-02  2.32184443E-01  4.67941348E-01
  3.62311985E-01 -1.19332420E-01 -1.60854152E-01  1.14345644E+00  1.00000000E+00
  1.00000000E+00  1.00000000E+00  1.83473713E-03  1.40373228E-02  6.88426223E-02
  2.32184443E-01  4.67941348E-01  3.62311985E-01 -1.19332420E-01 -1.60854152E-01
  1.14345644E+00  1.00000000E+00  1.00000000E+00  1.00000000E+00  1.83473713E-03
  1.40373228E-02  6.88426223E-02  2.32184443E-01  4.67941348E-01  3.62311985E-01
 -1.19332420E-01 -1.60854152E-01  1.14345644E+00  1.00000000E+00  1.00000000E+00
  1.00000000E+00  1.83473713E-03  1.40373228E-02  6.88426223E-02  2.32184443E-01
  4.67941348E-01  3.62311985E-01 -1.19332420E-01 -1.60854152E-01  1.14345644E+00
  1.00000000E+00  1.00000000E+00  1.00000000E+00  1.83473713E-03  1.40373228E-02
  6.88426223E-02  2.32184443E-01  4.67941348E-01  3.62311985E-01 -1.19332420E-01
 -1.60854152E-01  1.14345644E+00  1.00000000E+00  1.00000000E+00  1.00000000E+00
  1.83473713E-03  1.40373228E-02  6.88426223E-02  2.32184443E-01  4.67941348E-01
  3.62311985E-01 -1.19332420E-01 -1.60854152E-01  1.14345644E+00  1.00000000E+00
  1.00000000E+00  1.00000000E+00  3.34946043E-02  2.34726953E-01  8.13757326E-01
  1.00000000E+00  3.34946043E-02  2.34726953E-01  8.13757326E-01  1.00000000E+00
  3.34946043E-02  2.34726953E-01  8.13757326E-01  1.00000000E+00  3.34946043E-02
  2.34726953E-01  8.13757326E-01  1.00000000E+00  3.34946043E-02  2.34726953E-01
  8.13757326E-01  1.00000000E+00  3.34946043E-02  2.34726953E-01  8.13757326E-01
  1.00000000E+00
P(S=P) Contraction coefficients            R   N=          96
  0.00000000E+00  0.00000000E+00  0.00000000E+00  0.00000000E+00  0.00000000E+00
  0.00000000E+00  6.89990666E-02  3.16423961E-01  7.44308291E-01  1.00000000E+00
  1.00000000E+00  0.00000000E+00  0.00000000E+00  0.00000000E+00  0.00000000E+00
  0.00000000E+00  0.00000000E+00  0.00000000E+00  6.89990666E-02  3.16423961E-01
  7.44308291E-01  1.00000000E+00  1.00000000E+00  0.00000000E+00  0.00000000E+00
  0.00000000E+00  0.00000000E+00  0.00000000E+00  0.00000000E+00  0.00000000E+00
  6.89990666E-02  3.16423961E-01  7.44308291E-01  1.00000000E+00  1.00000000E+00
  0.00000000E+00  0.00000000E+00  0.00000000E+00  0.00000000E+00  0.00000000E+00
  0.00000000E+00  0.00000000E+00  6.89990666E-02  3.16423961E-01  7.44308291E-01
  1.00000000E+00  1.00000000E+00  0.00000000E+00  0.00000000E+00  0.00000000E+00
  0.00000000E+00  0.00000000E+00  0.00000000E+00  0.00000000E+00  6.89990666E-02
  3.16423961E-01  7.44308291E-01  1.00000000E+00  1.00000000E+00  0.00000000E+00
  0.00000000E+00  0.00000000E+00  0.00000000E+00  0.00000000E+00  0.00000000E+00
  0.00000000E+00  6.89990666E-02  3.16423961E-01  7.44308291E-01  1.00000000E+00
  1.00000000E+00  0.00000000E+00  0.00000000E+00  0.00000000E+00  0.00000000E+00
  0.00000000E+00  0.00000000E+00  0.00000000E+00  0.00000000E+00  0.00000000E+00
  0.00000000E+00  0.00000000E+00  0.00000000E+00  0.00000000E+00  0.00000000E+00
  0.00000000E+00  0.00000000E+00  0.00000000E+00  0.00000000E+00  0.00000000E+00
  0.00000000E+00  0.00000000E+00  0.00000000E+00  0.00000000E+00  0.00000000E+00
  0.00000000E+00
Coordinates of each shell                  R   N=         126
 -3.70511105E-01  1.58651221E-01  1.14062675E-04 -3.70511105E-01  1.58651221E-01
  1.14062675E-04 -3.70511105E-01  1.58651221E-01  1.14062675E-04 -3.70511105E-01
  1.58651221E-01  1.14062675E-04 -3.70511105E-01  1.58651221E-01  1.14062675E-04
  2.27300998E+00  1.58518677E-01  9.56237079E-04  2.27300998E+00  1.58518677E-01
  9.56237079E-04  2.27300998E+00  1.58518677E-01  9.56237079E-04  2.27300998E+00
  1.58518677E-01  9.56237079E-04  2.27300998E+00  1.58518677E-01  9.56237079E-04
  3.59488584E+00  2.44780957E+00 -8.90749171E-05  3.59488584E+00  2.44780957E+00
 -8.90749171E-05  3.59488584E+00  2.44780957E+00 -8.90749171E-05  3.59488584E+00
  2.44780957E+00 -8.90749171E-05  3.59488584E+00  2.44780957E+00 -8.90749171E-05
  2.27323983E+00  4.73723189E+00 -1.97589054E-03  2.27323983E+00  4.73723189E+00
 -1.97589054E-03  2.27323983E+00  4.73723189E+00 -1.97589054E-03  2.27323983E+00
  4.73723189E+00 -1.97589054E-03  2.27323983E+00  4.73723189E+00 -1.97589054E-03
 -3.70281271E-01  4.73736449E+00 -2.81775510E-03 -3.70281271E-01  4.73736449E+00
 -2.81775510E-03 -3.70281271E-01  4.73736449E+00 -2.81775510E-03 -3.70281271E-01
  4.73736449E+00 -2.81775510E-03 -3.70281271E-01  4.73736449E+00 -2.81775510E-03
 -1.69215715E+00  2.44807357E+00 -1.77312836E-03 -1.69215715E+00  2.44807357E+00
 -1.77312836E-03 -1.69215715E+00  2.44807357E+00 -1.77312836E-03 -1.69215715E+00
  2.44807357E+00 -1.77312836E-03 -1.69215715E+00  2.44807357E+00 -1.77312836E-03
 -1.39792745E+00 -1.62067814E+00  9.25941358E-04 -1.39792745E+00 -1.62067814E+00
  9.25941358E-04  3.30024875E+00 -1.62091262E+00  2.42159262E-03  3.30024875E+00
 -1.62091262E+00  2.42159262E-03  5.64953814E+00  2.44770675E+00  5.65589563E-04
  5.64953814E+00  2.44770675E+00  5.65589563E-04  3.30065666E+00  6.51656095E+00
 -2.78741686E-03  3.30065666E+00  6.51656095E+00 -2.78741686E-03 -1.39752074E+00
  6.51679540E+00 -4.28283590E-03 -1.39752074E+00  6.51679540E+00 -4.28283590E-03
 -3.74680946E+00  2.44817717E+00 -2.42749278E-03 -3.74680946E+00  2.44817717E+00
 -2.42749278E-03
Constraint Structure                       R   N=          36
 -3.70511105E-01  1.58651221E-01  1.14062675E-04  2.27300998E+00  1.58518677E-01
  9.56237079E-04  3.59488584E+00  2.44780957E+00 -8.90749171E-05  2.27323983E+00
  4.73723189E+00 -1.97589054E-03 -3.70281271E-01  4.73736449E+00 -2.81775510E-03
 -1.69215715E+00  2.44807357E+00 -1.77312836E-03 -1.39792745E+00 -1.62067814E+00
  9.25941358E-04  3.30024875E+00 -1.62091262E+00  2.42159262E-03  5.64953814E+00
  2.44770675E+00  5.65589563E-04  3.30065666E+00  6.51656095E+00 -2.78741686E-03
 -1.39752074E+00  6.51679540E+00 -4.28283590E-03 -3.74680946E+00  2.44817717E+00
 -2.42749278E-03
Num ILSW                                   I              100
ILSW                                       I   N=         100
           0           0           0           0           2           0
           0           0           0           0         402          -1
           0           0           0           0           2           0
           0           0           0           0           1           0
           1           1           0           0           0           0
           0           0      100000           0          -1           0
           0           0           0           0           0           0
           0           0           0           1           0           0
           0           0           1           0           0           0
           0           0           4          41           0           0
           0           0           5           0           0           0
           0           0           0          12           0           0
           0           0           0           0           0           0
           0           0           0           0           0           0
           0           0           0           0           0           0
           0           0           0           0           0           0
           0           0           0           0
Num RLSW                                   I               41
RLSW                                       R   N=          41
  8.00000000E-01  7.20000000E-01  1.00000000E+00  8.10000000E-01  2.00000000E-01
  0.00000000E+00  0.00000000E+00  1.00000000E+00  0.00000000E+00  0.00000000E+00
  0.00000000E+00  0.00000000E+00  1.00000000E+00  0.00000000E+00  0.00000000E+00
  0.00000000E+00  0.00000000E+00  1.00000000E+00  0.00000000E+00  0.00000000E+00
  0.00000000E+00  0.00000000E+00  1.00000000E+00  0.00000000E+00  0.00000000E+00
  0.00000000E+00  0.00000000E+00  1.00000000E+00  0.00000000E+00  0.00000000E+00
  0.00000000E+00  0.00000000E+00  1.00000000E+00  0.00000000E+00  0.00000000E+00
  0.00000000E+00  0.00000000E+00  0.00000000E+00  1.00000000E+00  1.00000000E+00
  0.00000000E+00
ECP-MxAtEC                                 I           250000
ECP-MaxLECP                                I               10
ECP-MaxAtL                                 I          2250000
ECP-MxTECP                                 I         11250000
ECP-LenNCZ                                 I                0
ECP-KFirst                                 I   N=         120
           0           0           0           0           0           0
           0           0           0           0           0           0
           0           0           0           0           0           0
           0           0           0           0           0           0
           0           0           0           0           0           0
           0           0           0           0           0           0
           0           0           0           0           0           0
           0           0           0           0           0           0
           0           0           0           0           0           0
           0           0           0           0           0           0
           0           0           0           0           0           0
           0           0           0           0           0           0
           0           0           0           0           0           0
           0           0           0           0           0           0
           0           0           0           0           0           0
           0           0           0           0           0           0
           0           0           0           0           0           0
           0           0           0           0           0           0
           0           0           0           0           0           0
           0           0           0           0           0           0
ECP-KLast                                  I   N=         120
           0           0           0           0           0           0
           0           0           0           0           0           0
           0           0           0           0           0           0
           0           0           0           0           0           0
           0           0           0           0           0           0
           0           0           0           0           0           0
           0           0           0           0           0           0
           0           0           0           0           0           0
           0           0           0           0           0           0
           0           0           0           0           0           0
           0           0           0           0           0           0
           0           0           0           0           0           0
           0           0           0           0           0           0
           0           0           0           0           0           0
           0           0           0           0           0           0
           0           0           0           0           0           0
           0           0           0           0           0           0
           0           0           0           0           0           0
           0           0           0           0           0           0
           0           0           0           0           0           0
ECP-LMax                                   I   N=          12
           0           0           0           0           0           0
           0           0           0           0           0           0
ECP-LPSkip                                 I   N=          12
           1           1           1           1           1           1
           1           1           1           1           1           1
ECP-RNFroz                                 R   N=          12
  0.00000000E+00  0.00000000E+00  0.00000000E+00  0.00000000E+00  0.00000000E+00
  0.00000000E+00  0.00000000E+00  0.00000000E+00  0.00000000E+00  0.00000000E+00
  0.00000000E+00  0.00000000E+00
ECP-NLP                                    I                0
ECP-CLP1                                   R      0.000000000000000E+00
ECP-CLP2                                   R      0.000000000000000E+00
ECP-ZLP                                    R      0.000000000000000E+00
MxBond                                     I                3
NBond                                      I   N=          12
           3           3           3           3           3           3
           1           1           1           1           1           1
IBond                                      I   N=          36
           2           6           7           1           3           8
           2           4           9           3           5          10
           4           6          11           1           5          12
           1           0           0           2           0           0
           3           0           0           4           0           0
           5           0           0           6           0           0
RBond                                      R   N=          36
  1.50000000E+00  1.50000000E+00  1.00000000E+00  1.50000000E+00  1.50000000E+00
  1.00000000E+00  1.50000000E+00  1.50000000E+00  1.00000000E+00  1.50000000E+00
  1.50000000E+00  1.00000000E+00  1.50000000E+00  1.50000000E+00  1.00000000E+00