 Entering Gaussian System, Link 0=g09
 Input=testBmat.com
 Output=testBmat.log
 Initial command:
 /apps/g09/l1.exe "/tmp/Gau-6897.inp" -scrdir="/tmp/"
 Entering Link 1 = /apps/g09/l1.exe PID=      6899.
  
 Copyright (c) 1988,1990,1992,1993,1995,1998,2003,2009,2013,
            Gaussian, Inc.  All Rights Reserved.
  
 This is part of the Gaussian(R) 09 program.  It is based on
 the Gaussian(R) 03 system (copyright 2003, Gaussian, Inc.),
 the Gaussian(R) 98 system (copyright 1998, Gaussian, Inc.),
 the Gaussian(R) 94 system (copyright 1995, Gaussian, Inc.),
 the Gaussian 92(TM) system (copyright 1992, Gaussian, Inc.),
 the Gaussian 90(TM) system (copyright 1990, Gaussian, Inc.),
 the Gaussian 88(TM) system (copyright 1988, Gaussian, Inc.),
 the Gaussian 86(TM) system (copyright 1986, Carnegie Mellon
 University), and the Gaussian 82(TM) system (copyright 1983,
 Carnegie Mellon University). Gaussian is a federally registered
 trademark of Gaussian, Inc.
  
 This software contains proprietary and confidential information,
 including trade secrets, belonging to Gaussian, Inc.
  
 This software is provided under written license and may be
 used, copied, transmitted, or stored only in accord with that
 written license.
  
 The following legend is applicable only to US Government
 contracts under FAR:
  
                    RESTRICTED RIGHTS LEGEND
  
 Use, reproduction and disclosure by the US Government is
 subject to restrictions as set forth in subparagraphs (a)
 and (c) of the Commercial Computer Software - Restricted
 Rights clause in FAR 52.227-19.
  
 Gaussian, Inc.
 340 Quinnipiac St., Bldg. 40, Wallingford CT 06492
  
  
 ---------------------------------------------------------------
 Warning -- This program may not be used in any manner that
 competes with the business of Gaussian, Inc. or will provide
 assistance to any competitor of Gaussian, Inc.  The licensee
 of this program is prohibited from giving any competitor of
 Gaussian, Inc. access to this program.  By using this program,
 the user acknowledges that Gaussian, Inc. is engaged in the
 business of creating and licensing software in the field of
 computational chemistry and represents and warrants to the
 licensee that it is not a competitor of Gaussian, Inc. and that
 it will not use this program in any manner prohibited above.
 ---------------------------------------------------------------
  

 Cite this work as:
 Gaussian 09, Revision D.01,
 M. J. Frisch, G. W. Trucks, H. B. Schlegel, G. E. Scuseria, 
 M. A. Robb, J. R. Cheeseman, G. Scalmani, V. Barone, B. Mennucci, 
 G. A. Petersson, H. Nakatsuji, M. Caricato, X. Li, H. P. Hratchian, 
 A. F. Izmaylov, J. Bloino, G. Zheng, J. L. Sonnenberg, M. Hada, 
 M. Ehara, K. Toyota, R. Fukuda, J. Hasegawa, M. Ishida, T. Nakajima, 
 Y. Honda, O. Kitao, H. Nakai, T. Vreven, J. A. Montgomery, Jr., 
 J. E. Peralta, F. Ogliaro, M. Bearpark, J. J. Heyd, E. Brothers, 
 K. N. Kudin, V. N. Staroverov, T. Keith, R. Kobayashi, J. Normand, 
 K. Raghavachari, A. Rendell, J. C. Burant, S. S. Iyengar, J. Tomasi, 
 M. Cossi, N. Rega, J. M. Millam, M. Klene, J. E. Knox, J. B. Cross, 
 V. Bakken, C. Adamo, J. Jaramillo, R. Gomperts, R. E. Stratmann, 
 O. Yazyev, A. J. Austin, R. Cammi, C. Pomelli, J. W. Ochterski, 
 R. L. Martin, K. Morokuma, V. G. Zakrzewski, G. A. Voth, 
 P. Salvador, J. J. Dannenberg, S. Dapprich, A. D. Daniels, 
 O. Farkas, J. B. Foresman, J. V. Ortiz, J. Cioslowski, 
 and D. J. Fox, Gaussian, Inc., Wallingford CT, 2013.
 
 ******************************************
 Gaussian 09:  ES64L-G09RevD.01 24-Apr-2013
                 2-Mar-2017 
 ******************************************
 %mem=1gb
 %chk=testBmat.chk
 ----------------------------------------------------------------------
 #p amber=softonly geom=connectivity nosymm iop(4/33=3,7/33=1) freq=int
 modes
 ----------------------------------------------------------------------
 1/10=4,18=20,30=1,38=1,56=2,57=2,64=303/1,3;
 2/9=110,12=2,15=1,17=6,18=5,40=1/2;
 3/5=30,11=9,16=1,25=1,30=1,41=10300000,43=2,71=2,140=1/1;
 4/20=11,22=2,24=3,33=3/2;
 7/8=21,25=1,30=1,33=1,44=-1/16;
 1/10=4,18=20,30=1,64=303/3;
 99//99;
 Leave Link    1 at Thu Mar  2 17:10:59 2017, MaxMem=   134217728 cpu:         0.0
 (Enter /apps/g09/l101.exe)
 -----
 final
 -----
 Symbolic Z-matrix:
 Charge =  0 Multiplicity = 1
 C-c-0.754205         -0.48335   0.15992   0. 
 O-o--0.580972        -0.38387   1.38498   0. 
 N-n--0.437191         0.61528  -0.65054  -0.0002 
 H-hn-0.308758         0.49115  -1.65225   0.00041 
 C-c3--0.430739        1.96551  -0.10482   0. 
 H-h1-0.174137         2.13359   0.51453   0.8875 
 H-h1-0.174137         2.67819  -0.93312  -0.00224 
 H-h1-0.174137         2.13209   0.5182   -0.88501 
 C-c3--0.641370       -1.83399  -0.53906   0. 
 H-hc-0.168299        -2.39702  -0.21864  -0.88245 
 H-hc-0.168299        -1.76614  -1.63233   0. 
 H-hc-0.168299        -2.3969   -0.21869   0.88264 
 
 NAtoms=     12 NQM=       12 NQMF=       0 NMMI=      0 NMMIF=      0
                NMic=       0 NMicF=      0.
                    Isotopes and Nuclear Properties:
 (Nuclear quadrupole moments (NQMom) in fm**2, nuclear magnetic moments (NMagM)
  in nuclear magnetons)

  Atom         1           2           3           4           5           6           7           8           9          10
 IAtWgt=          12          16          14           1          12           1           1           1          12           1
 AtmWgt=  12.0000000  15.9949146  14.0030740   1.0078250  12.0000000   1.0078250   1.0078250   1.0078250  12.0000000   1.0078250
 NucSpn=           0           0           2           1           0           1           1           1           0           1
 AtZEff=   0.0000000   0.0000000   0.0000000   0.0000000   0.0000000   0.0000000   0.0000000   0.0000000   0.0000000   0.0000000
 NQMom=    0.0000000   0.0000000   2.0440000   0.0000000   0.0000000   0.0000000   0.0000000   0.0000000   0.0000000   0.0000000
 NMagM=    0.0000000   0.0000000   0.4037610   2.7928460   0.0000000   2.7928460   2.7928460   2.7928460   0.0000000   2.7928460
 AtZNuc=   6.0000000   8.0000000   7.0000000   1.0000000   6.0000000   1.0000000   1.0000000   1.0000000   6.0000000   1.0000000

  Atom        11          12
 IAtWgt=           1           1
 AtmWgt=   1.0078250   1.0078250
 NucSpn=           1           1
 AtZEff=   0.0000000   0.0000000
 NQMom=    0.0000000   0.0000000
 NMagM=    2.7928460   2.7928460
 AtZNuc=   1.0000000   1.0000000
 Generating MM parameters.
 I=    1 IAn=  6 Valence= 5.
          JB=  1 J=    2 IAn=  8 IBT= 2 Dist= 1.23D+00
          JB=  2 J=    3 IAn=  7 IBT=21 Dist= 1.37D+00
          JB=  3 J=    9 IAn=  6 IBT= 1 Dist= 1.52D+00
 I=    3 IAn=  7 Valence= 4.
          JB=  1 J=    1 IAn=  6 IBT=21 Dist= 1.37D+00
          JB=  2 J=    4 IAn=  1 IBT= 1 Dist= 1.01D+00
          JB=  3 J=    5 IAn=  6 IBT= 1 Dist= 1.46D+00
 Read MM parameter file:
 Define HN         1
 Define C3         2
 Include all MM classes

 MM sanity checks:
 All charges sum to:               -0.00000100
 Charges of atoms sum to:          -0.00000100
 MMInit generated parameter data with length LenPar=        2409.
 MM Charge=              0.0000 electrons
 MM Dipole moment (Debye):
    X=              0.8449    Y=             -4.0820    Z=              0.0014  Tot=              4.1685
 MM Quadrupole moment (Debye-Ang):
   XX=              7.0630   YY=              0.3874   ZZ=              2.5732
   XY=              1.1512   XZ=              0.0008   YZ=             -0.0013
 MM Traceless Quadrupole moment (Debye-Ang):
   XX=              3.7218   YY=             -2.9538   ZZ=             -0.7680
   XY=              1.1512   XZ=              0.0008   YZ=             -0.0013
 MM Octapole moment (Debye-Ang**2):
  XXX=              8.3083  YYY=            -17.0068  ZZZ=              0.0052  XYY=              3.9611
  XXY=             -1.9006  XXZ=              0.0015  XZZ=             -0.2160  YZZ=              0.4031
  YYZ=             -0.0020  XYZ=              0.0012
 MM Hexadecapole moment (Debye-Ang**3):
 XXXX=             73.0755 YYYY=              6.6466 ZZZZ=              2.0128 XXXY=             -2.8905
 XXXZ=             -0.0014 YYYX=              3.9498 YYYZ=             -0.0032 ZZZX=              0.0105
 ZZZY=              0.0003 XXYY=             11.1898 XXZZ=             13.2121 YYZZ=              0.4105
 XXYZ=              0.0068 YYXZ=             -0.0080 ZZXY=              2.1070
 Leave Link  101 at Thu Mar  2 17:10:56 2017, MaxMem=   134217728 cpu:         0.1
 (Enter /apps/g09/l103.exe)

 GradGradGradGradGradGradGradGradGradGradGradGradGradGradGradGradGradGrad
 Berny optimization.
 Initialization pass.
                           ----------------------------
                           !    Initial Parameters    !
                           ! (Angstroms and Degrees)  !
 --------------------------                            --------------------------
 ! Name  Definition              Value          Derivative Info.                !
 --------------------------------------------------------------------------------
 ! R1    R(1,2)                  1.2291         calculate D2E/DX2 analytically  !
 ! R2    R(1,3)                  1.3652         calculate D2E/DX2 analytically  !
 ! R3    R(1,9)                  1.5208         calculate D2E/DX2 analytically  !
 ! R4    R(3,4)                  1.0094         calculate D2E/DX2 analytically  !
 ! R5    R(3,5)                  1.4563         calculate D2E/DX2 analytically  !
 ! R6    R(5,6)                  1.0952         calculate D2E/DX2 analytically  !
 ! R7    R(5,7)                  1.0927         calculate D2E/DX2 analytically  !
 ! R8    R(5,8)                  1.0951         calculate D2E/DX2 analytically  !
 ! R9    R(9,10)                 1.0947         calculate D2E/DX2 analytically  !
 ! R10   R(9,11)                 1.0954         calculate D2E/DX2 analytically  !
 ! R11   R(9,12)                 1.0948         calculate D2E/DX2 analytically  !
 ! A1    A(2,1,3)              121.7741         calculate D2E/DX2 analytically  !
 ! A2    A(2,1,9)              122.0044         calculate D2E/DX2 analytically  !
 ! A3    A(3,1,9)              116.2214         calculate D2E/DX2 analytically  !
 ! A4    A(1,3,4)              119.3521         calculate D2E/DX2 analytically  !
 ! A5    A(1,3,5)              121.5762         calculate D2E/DX2 analytically  !
 ! A6    A(4,3,5)              119.0716         calculate D2E/DX2 analytically  !
 ! A7    A(3,5,6)              110.7509         calculate D2E/DX2 analytically  !
 ! A8    A(3,5,7)              108.7018         calculate D2E/DX2 analytically  !
 ! A9    A(3,5,8)              110.7399         calculate D2E/DX2 analytically  !
 ! A10   A(6,5,7)              109.2829         calculate D2E/DX2 analytically  !
 ! A11   A(6,5,8)              108.0491         calculate D2E/DX2 analytically  !
 ! A12   A(7,5,8)              109.2923         calculate D2E/DX2 analytically  !
 ! A13   A(1,9,10)             108.7986         calculate D2E/DX2 analytically  !
 ! A14   A(1,9,11)             113.8111         calculate D2E/DX2 analytically  !
 ! A15   A(1,9,12)             108.7933         calculate D2E/DX2 analytically  !
 ! A16   A(10,9,11)            108.9048         calculate D2E/DX2 analytically  !
 ! A17   A(10,9,12)            107.4453         calculate D2E/DX2 analytically  !
 ! A18   A(11,9,12)            108.8998         calculate D2E/DX2 analytically  !
 ! D1    D(2,1,3,4)            179.9608         calculate D2E/DX2 analytically  !
 ! D2    D(2,1,3,5)              0.0195         calculate D2E/DX2 analytically  !
 ! D3    D(9,1,3,4)             -0.0485         calculate D2E/DX2 analytically  !
 ! D4    D(9,1,3,5)           -179.9898         calculate D2E/DX2 analytically  !
 ! D5    D(2,1,9,10)            58.3782         calculate D2E/DX2 analytically  !
 ! D6    D(2,1,9,11)           180.0            calculate D2E/DX2 analytically  !
 ! D7    D(2,1,9,12)           -58.3885         calculate D2E/DX2 analytically  !
 ! D8    D(3,1,9,10)          -121.6124         calculate D2E/DX2 analytically  !
 ! D9    D(3,1,9,11)             0.0093         calculate D2E/DX2 analytically  !
 ! D10   D(3,1,9,12)           121.6208         calculate D2E/DX2 analytically  !
 ! D11   D(1,3,5,6)             60.0404         calculate D2E/DX2 analytically  !
 ! D12   D(1,3,5,7)           -179.8878         calculate D2E/DX2 analytically  !
 ! D13   D(1,3,5,8)            -59.8111         calculate D2E/DX2 analytically  !
 ! D14   D(4,3,5,6)           -119.901          calculate D2E/DX2 analytically  !
 ! D15   D(4,3,5,7)              0.1708         calculate D2E/DX2 analytically  !
 ! D16   D(4,3,5,8)            120.2475         calculate D2E/DX2 analytically  !
 --------------------------------------------------------------------------------
 Trust Radius=3.00D-01 FncErr=1.00D-07 GrdErr=1.00D-07
 Number of steps in this run=      2 maximum allowed number of steps=      2.
 GradGradGradGradGradGradGradGradGradGradGradGradGradGradGradGradGradGrad

 Leave Link  103 at Thu Mar  2 17:10:56 2017, MaxMem=   134217728 cpu:         0.0
 (Enter /apps/g09/l202.exe)
                          Input orientation:                          
 ---------------------------------------------------------------------
 Center     Atomic      Atomic             Coordinates (Angstroms)
 Number     Number       Type             X           Y           Z
 ---------------------------------------------------------------------
      1          6    20001002       -0.483346    0.159919    0.000000
      2          8    20001024       -0.383872    1.384981    0.000000
      3          7    20001014        0.615285   -0.650544   -0.000199
      4          1    90000001        0.491152   -1.652252    0.000410
      5          6    90000002        1.965506   -0.104816    0.000000
      6          1    20001035        2.133586    0.514526    0.887496
      7          1    20001035        2.678195   -0.933121   -0.002243
      8          1    20001035        2.132094    0.518200   -0.885014
      9          6    90000002       -1.833990   -0.539059    0.000000
     10          1    20001034       -2.397015   -0.218636   -0.882450
     11          1    20001034       -1.766142   -1.632325    0.000000
     12          1    20001034       -2.396904   -0.218695    0.882637
 ---------------------------------------------------------------------
                    Distance matrix (angstroms):
                    1          2          3          4          5
     1  C    0.000000
     2  O    1.229093   0.000000
     3  N    1.365226   2.267527   0.000000
     4  H    2.057574   3.160767   1.009370   0.000000
     5  C    2.463120   2.781918   1.456336   2.137353   0.000000
     6  H    2.785988   2.807657   2.109652   2.859972   1.095210
     7  H    3.345158   3.840554   2.082174   2.302241   1.092712
     8  H    2.784267   2.804397   2.109400   2.861386   1.095057
     9  C    1.520792   2.409309   2.451810   2.577883   3.824229
    10  H    2.141063   2.720855   3.168417   3.343084   4.452332
    11  H    2.204020   3.318856   2.575867   2.257382   4.032181
    12  H    2.141051   2.720868   3.168466   3.342795   4.452262
                    6          7          8          9         10
     6  H    0.000000
     7  H    1.784353   0.000000
     8  H    1.772514   1.784333   0.000000
     9  C    4.199923   4.529359   4.198912   0.000000
    10  H    4.919003   5.200289   4.588656   1.094709   0.000000
    11  H    4.539218   4.499002   4.539191   1.095369   1.781919
    12  H    4.589442   5.200966   4.917258   1.094786   1.765088
                   11         12
    11  H    0.000000
    12  H    1.781926   0.000000
 Symmetry turned off by external request.
 Stoichiometry    C3H7NO
 Framework group  C1[X(C3H7NO)]
 Deg. of freedom    30
 Full point group                 C1      NOp   1
 Rotational constants (GHZ):     10.0343926      3.8348912      2.8740384
 Leave Link  202 at Thu Mar  2 17:10:56 2017, MaxMem=   134217728 cpu:         0.0
 (Enter /apps/g09/l301.exe)
 Standard basis: Dummy (5D, 7F)
    12 basis functions,    12 primitive gaussians,    12 cartesian basis functions
     8 alpha electrons        8 beta electrons
       nuclear repulsion energy        28.0262346181 Hartrees.
 IExCor=    0 DFT=F Ex=HF Corr=None ExCW=0 ScaHFX=  1.000000
 ScaDFX=  1.000000  1.000000  1.000000  1.000000 ScalE2=  1.000000  1.000000
 IRadAn=      0 IRanWt=     -1 IRanGd=            0 ICorTp=0 IEmpDi=  4
 NAtoms=   12 NActive=   12 NUniq=   12 SFac= 1.00D+00 NAtFMM=   60 NAOKFM=F Big=F
 Integral buffers will be    131072 words long.
 Raffenetti 1 integral format.
 Two-electron integral symmetry is turned off.
 Leave Link  301 at Thu Mar  2 17:10:56 2017, MaxMem=   134217728 cpu:         0.0
 (Enter /apps/g09/l402.exe)
 GetPCM: File not found, return IValue=0.
 AMBER calculation of energy, first and second derivatives.
 No initial guess density matrices.
 EGHMM:  JobTyp=     2 NAtoms=    12.
 ****************************
 MOLECULAR MECHANICS FUNCTION
 ****************************
 Atomic parameters:
 Center  VDW
      1 1.9080 0.0860000
      2 1.6612 0.2100000
      3 1.8240 0.1700000
      4 0.6000 0.0157000
      5 1.9080 0.1094000
      6 1.3870 0.0157000
      7 1.3870 0.0157000
      8 1.3870 0.0157000
      9 1.9080 0.1094000
     10 1.4870 0.0157000
     11 1.4870 0.0157000
     12 1.4870 0.0157000
 Molecular mechanics terms:
 NBDir 3 1      0      0
 HrmStr1  1- 2  867.51 1.2291
 HrmStr1  1- 3  485.12 1.3652
 HrmStr1  1- 9  303.92 1.5208
 HrmStr1  4- 3  529.88 1.0094
 HrmStr1  5- 3  377.75 1.4563
 HrmStr1  5- 6  383.10 1.0943
 HrmStr1  5- 7  383.10 1.0943
 HrmStr1  5- 8  383.10 1.0943
 HrmStr1  9-10  383.63 1.0950
 HrmStr1  9-11  383.63 1.0950
 HrmStr1  9-12  383.63 1.0950
 HrmBnd1  1- 3- 4  44.87 119.35
 HrmBnd1  1- 3- 5  35.05 121.58
 HrmBnd1  1- 9-10  45.62 110.47
 HrmBnd1  1- 9-11  45.62 110.47
 HrmBnd1  1- 9-12  45.62 110.47
 HrmBnd1  3- 1- 2  81.68 121.77
 HrmBnd1  9- 1- 2  69.58 122.00
 HrmBnd1  9- 1- 3  72.63 116.22
 HrmBnd1  6- 5- 3  56.63 110.06
 HrmBnd1  7- 5- 3  56.63 110.06
 HrmBnd1  8- 5- 3  56.63 110.06
 HrmBnd1  5- 3- 4  37.21 119.07
 HrmBnd1  6- 5- 7  40.22 108.87
 HrmBnd1  6- 5- 8  40.22 108.87
 HrmBnd1  7- 5- 8  40.22 108.87
 HrmBnd1 10- 9-11  39.69 108.42
 HrmBnd1 10- 9-12  39.69 108.42
 HrmBnd1 11- 9-12  39.69 108.42
 AmbTrs  2- 1- 3- 4   0   0   0   0  0.0000 17.2460  0.0000  0.0000  4.0
 AmbTrs  2- 1- 3- 5   0   0   0   0  0.0000 17.2460  0.0000  0.0000  4.0
 AmbTrs  9- 1- 3- 4   0   0   0   0  0.0000 17.2460  0.0000  0.0000  4.0
 AmbTrs  9- 1- 3- 5   0   0   0   0  0.0000 17.2460  0.0000  0.0000  4.0
 AmbTrs  2- 1- 9-10   0   0   0   0  0.0000  9.9200  0.0000  0.0000  6.0
 AmbTrs  2- 1- 9-11   0   0   0   0  0.0000  9.9200  0.0000  0.0000  6.0
 AmbTrs  2- 1- 9-12   0   0   0   0  0.0000  9.9200  0.0000  0.0000  6.0
 AmbTrs  3- 1- 9-10   0   0   0   0  0.0000  9.9200  0.0000  0.0000  6.0
 AmbTrs  3- 1- 9-11   0   0   0   0  0.0000  9.9200  0.0000  0.0000  6.0
 AmbTrs  3- 1- 9-12   0   0   0   0  0.0000  9.9200  0.0000  0.0000  6.0
 AmbTrs  6- 5- 3- 1   0   0   0   0  0.0000 -0.1450  0.0000  0.0000  6.0
 AmbTrs  7- 5- 3- 1   0   0   0   0  0.0000 -0.1450  0.0000  0.0000  6.0
 AmbTrs  8- 5- 3- 1   0   0   0   0  0.0000 -0.1450  0.0000  0.0000  6.0
 AmbTrs  6- 5- 3- 4   0   0   0   0  0.0000 -0.1450  0.0000  0.0000  6.0
 AmbTrs  7- 5- 3- 4   0   0   0   0  0.0000 -0.1450  0.0000  0.0000  6.0
 AmbTrs  8- 5- 3- 4   0   0   0   0  0.0000 -0.1450  0.0000  0.0000  6.0
 NBPair  2- 1 3 1      0      0 -1.000 -1.000
 NBPair  3- 2 3 1      0      0 -1.000 -1.000
 NBPair  9- 2 3 1      0      0 -1.000 -1.000
 NBPair  3- 1 3 1      0      0 -1.000 -1.000
 NBPair  4- 2 3 1      0      0 -0.500 -0.167
 NBPair  5- 2 3 1      0      0 -0.500 -0.167
 NBPair  9- 3 3 1      0      0 -1.000 -1.000
 NBPair  9- 4 3 1      0      0 -0.500 -0.167
 NBPair  9- 5 3 1      0      0 -0.500 -0.167
 NBPair  9- 1 3 1      0      0 -1.000 -1.000
 NBPair 10- 2 3 1      0      0 -0.500 -0.167
 NBPair 11- 2 3 1      0      0 -0.500 -0.167
 NBPair 12- 2 3 1      0      0 -0.500 -0.167
 NBPair 10- 3 3 1      0      0 -0.500 -0.167
 NBPair 11- 3 3 1      0      0 -0.500 -0.167
 NBPair 12- 3 3 1      0      0 -0.500 -0.167
 NBPair  4- 1 3 1      0      0 -1.000 -1.000
 NBPair  5- 1 3 1      0      0 -1.000 -1.000
 NBPair  4- 3 3 1      0      0 -1.000 -1.000
 NBPair  5- 4 3 1      0      0 -1.000 -1.000
 NBPair  5- 3 3 1      0      0 -1.000 -1.000
 NBPair  6- 1 3 1      0      0 -0.500 -0.167
 NBPair  7- 1 3 1      0      0 -0.500 -0.167
 NBPair  8- 1 3 1      0      0 -0.500 -0.167
 NBPair  6- 4 3 1      0      0 -0.500 -0.167
 NBPair  7- 4 3 1      0      0 -0.500 -0.167
 NBPair  8- 4 3 1      0      0 -0.500 -0.167
 NBPair  6- 3 3 1      0      0 -1.000 -1.000
 NBPair  7- 3 3 1      0      0 -1.000 -1.000
 NBPair  8- 3 3 1      0      0 -1.000 -1.000
 NBPair  6- 5 3 1      0      0 -1.000 -1.000
 NBPair  7- 6 3 1      0      0 -1.000 -1.000
 NBPair  8- 6 3 1      0      0 -1.000 -1.000
 NBPair  7- 5 3 1      0      0 -1.000 -1.000
 NBPair  8- 7 3 1      0      0 -1.000 -1.000
 NBPair  8- 5 3 1      0      0 -1.000 -1.000
 NBPair 10- 1 3 1      0      0 -1.000 -1.000
 NBPair 11- 1 3 1      0      0 -1.000 -1.000
 NBPair 12- 1 3 1      0      0 -1.000 -1.000
 NBPair 10- 9 3 1      0      0 -1.000 -1.000
 NBPair 11-10 3 1      0      0 -1.000 -1.000
 NBPair 12-10 3 1      0      0 -1.000 -1.000
 NBPair 11- 9 3 1      0      0 -1.000 -1.000
 NBPair 12-11 3 1      0      0 -1.000 -1.000
 NBPair 12- 9 3 1      0      0 -1.000 -1.000
 Enter MMCalc
 NNonBon      3     1     0     0     0     0    0.000000    0.000000    0.500000    0.000000    0.000000    0.833333
 Non-bonded terms on-the-fly without fast algorithms, OKV=T OKC=T.
 Energy per function type:
 Direct Coulomb + vdW (small)                           0.116783384
 Direct Coulomb (large)                                -0.634191324
 Direct vdW (large)                                   406.013153425
 Non-direct Coulomb + vdW (small)                      -0.080650884
 Non-direct Coulomb (large)                             0.557952021
 Non-direct vdW (large)                              -406.013153425
 Harmonic stretch I                                     0.000002552
 Harmonic bend I                                        0.000495106
 Amber torsion                                         -0.038866215
 Energy per function class:
        Coulomb              -0.041459712
    Vanderwaals               0.001352909
     Stretching               0.000002552
        Bending               0.000495106
        Torsion              -0.038866215
 Energy=   -7.847536015E-02 NIter=   0.
 Dipole moment=       0.332416      -1.605980       0.000542
 Derivatives in ZDOGrd:
 I=    1 X=   7.668955280720D-03 Y=   5.875046374062D-03 Z=   1.895542545265D-05
 I=    2 X=   6.087788121191D-03 Y=   6.099847158048D-03 Z=   3.862763832767D-06
 I=    3 X=   4.985702484627D-03 Y=  -2.280874263888D-03 Z=  -6.145587940292D-05
 I=    4 X=   6.357551121662D-03 Y=  -2.846857054529D-03 Z=   2.517375550190D-05
 I=    5 X=  -1.126602670224D-02 Y=   6.618969868384D-03 Z=  -6.784995397879D-05
 I=    6 X=  -2.560541551110D-04 Y=  -1.173985968734D-03 Z=  -1.060185886987D-03
 I=    7 X=  -5.335928515582D-03 Y=  -1.996662700447D-03 Z=   1.149334525781D-05
 I=    8 X=  -2.943871149199D-04 Y=  -1.233005933116D-03 Z=   1.141258630639D-03
 I=    9 X=   1.488368687234D-03 Y=  -1.385776615244D-02 Z=  -6.040308073807D-05
 I=   10 X=  -3.422844593012D-03 Y=   3.807763542265D-03 Z=   1.799683914287D-03
 I=   11 X=  -2.569629768335D-03 Y=  -2.833000397232D-03 Z=   4.184513061591D-06
 I=   12 X=  -3.443494846124D-03 Y=   3.820525527786D-03 Z=  -1.754717546987D-03
 Force constants in ZDOGrd:
                1                     2                     3
   1    7.165122397345D-01
   2   -1.437883541392D-02    1.156577744068D+00
   3   -7.301573750223D-05    1.331485893337D-05    7.919157873688D-02
   4   -1.347789571546D-01   -6.068347856964D-02    1.246543871450D-05
   5   -5.192491755844D-02   -7.693283481472D-01    8.686187670621D-07
   6    1.319911663449D-05    1.091824077380D-05   -2.180107681954D-02
   7   -3.507212629041D-01    1.204266116396D-01    6.395286929220D-05
   8    1.234264924852D-01   -2.535651384935D-01   -2.143766989528D-05
   9    5.732289869724D-05   -1.920847441866D-05   -3.252156261346D-02
  10    1.712038981262D-02    2.320769724257D-02   -8.620205107616D-06
  11   -2.121582678707D-03   -2.875931003349D-03    3.767490921918D-06
  12   -2.708110952411D-06   -4.761787948589D-06    4.433781082455D-03
  13   -3.499979969167D-03   -4.744428454655D-03   -8.250994946835D-07
  14    8.659513492549D-03    1.173847991530D-02   -6.930015156187D-07
  15    2.344124911925D-06    1.336360159533D-06    7.484202506122D-03
  16   -2.102947553261D-03   -3.947556915571D-04   -9.820812330661D-04
  17   -3.947535385443D-04    7.567754134505D-04   -1.484576932525D-04
  18   -9.879740809545D-04   -1.338778381403D-04    4.842654078347D-04
  19   -7.627829955079D-04    4.132690761770D-04    8.733822549815D-07
  20    4.132690857843D-04    2.896885733769D-04   -3.686375592700D-07
  21    8.470870943891D-07   -3.035790953745D-07    4.684012263365D-04
  22   -2.113844804568D-03   -4.008424670773D-04    9.843551396014D-04
  23   -4.008445855003D-04    7.573931746929D-04    1.499809455228D-04
  24    9.901533143656D-04    1.356353269732D-04    4.862642435852D-04
  25   -2.432261318861D-01   -5.654055853469D-02   -4.880386163708D-07
  26   -5.730888355825D-02   -1.558855039525D-01    6.558152969880D-06
  27   -1.137312705262D-06   -1.181278137875D-06   -4.911855174309D-02
  28   -3.820188426409D-03    7.381786753569D-03   -1.717504080213D-02
  29   -3.333128342652D-03    6.440635880062D-03   -1.161280502560D-02
  30    1.227096807887D-03   -2.371130936679D-03    6.741428331634D-03
  31    1.121209827248D-02   -2.166524507937D-02    3.439249735489D-07
  32    6.958152772314D-04   -1.344530536999D-03    2.134375252525D-08
  33   -1.873471870610D-07    3.620127672773D-07   -2.590563419463D-03
  34   -3.818632125865D-03    7.378779499092D-03    1.717808036108D-02
  35   -3.332144664737D-03    6.438735109789D-03    1.160925061695D-02
  36   -1.225940760289D-03    2.368897094813D-03    6.741833060705D-03
                4                     5                     6
   4    1.042523097086D-01
   5    4.827085168461D-02    7.724287679074D-01
   6   -1.081425729631D-05    4.134672295245D-07    1.490052965030D-02
   7    2.570571283392D-02   -2.087279756446D-03   -1.084682801082D-05
   8    3.484560662826D-02   -2.829430554451D-03   -1.581795714466D-05
   9   -5.316722308627D-06    4.317128615394D-07    4.529951950616D-03
  10   -5.410166717147D-04   -5.631855567270D-04    4.913167654943D-06
  11   -5.631847193972D-04    1.251560902687D-03    4.233137077490D-06
  12    1.509619385771D-06   -3.805727403325D-07    7.668553202315D-03
  13   -9.908495675601D-03    7.706623110616D-03    1.849945745838D-07
  14    7.706623406204D-03   -2.642264845863D-03    1.711237322065D-06
  15   -1.016501342405D-06    8.253895498292D-08   -3.691762972036D-03
  16    2.305908664867D-04   -2.998574517577D-04    3.057278485914D-04
  17   -2.998574517577D-04   -5.329519872752D-04   -1.057106409153D-04
  18    3.057278485914D-04   -1.057106409153D-04   -5.288526689429D-04
  19    2.510490790703D-04   -3.933610162525D-04   -3.806819407051D-07
  20   -3.933610162525D-04    2.923322090123D-05    2.881907947858D-07
  21   -3.806819407051D-07    2.881907947858D-07   -2.685558402997D-04
  22    2.205559471642D-04   -2.957412418465D-04   -3.019624167656D-04
  23   -2.957412418465D-04   -5.359924307531D-04    1.040297255937D-04
  24   -3.019624167656D-04    1.040297255937D-04   -5.316608043247D-04
  25    1.522022914680D-02   -1.235868322028D-03    3.615020202899D-07
  26   -2.941019482845D-02    2.388080217622D-03   -6.985338226553D-07
  27   -1.768949868686D-07    1.436370691188D-08    5.120843182047D-03
  28   -2.434678622882D-04    2.279953079567D-04    6.068835417959D-04
  29    2.279953079567D-04   -3.480728085029D-04   -8.303130904392D-04
  30    1.254629717570D-04    9.994049659372D-05   -1.119631736861D-03
  31   -1.650491301499D-04    3.667211391223D-04    0.000000000000D+00
  32    3.667211391223D-04    4.674527688852D-04    0.000000000000D+00
  33    0.000000000000D+00    0.000000000000D+00   -3.158532691812D-03
  34   -2.434610877360D-04    2.280196612457D-04   -6.072659872583D-04
  35    2.280196612457D-04   -3.480342443745D-04    8.309462235304D-04
  36   -1.254984038082D-04   -9.997790084666D-05   -1.119804451407D-03
                7                     8                     9
   7    7.442134342790D-01
   8   -6.147868276889D-03    8.197422317566D-01
   9   -2.389621359142D-05   -2.483256320554D-04    1.022379224365D-01
  10   -1.034886332039D-01   -5.136427164011D-02    8.751033873478D-06
  11   -4.578092009549D-02   -4.665584757575D-01    2.574417898234D-04
  12    1.598965981305D-05    2.745573638070D-04   -2.629756565714D-02
  13   -3.065968023114D-01   -8.277599751071D-02   -4.037814527134D-05
  14   -7.609594664177D-02   -1.310431961944D-01    1.125483560070D-05
  15   -5.116488790749D-05    2.921321228113D-06   -6.940037064844D-02
  16    5.500382028212D-03   -1.359944715093D-02   -2.568475532004D-02
  17    1.214969579260D-03   -3.004222710743D-03   -4.947938156221D-03
  18   -1.889575979888D-03    4.672076599657D-03    8.317315041204D-03
  19   -9.022396906156D-03    2.232284395914D-02    5.377061586875D-05
  20   -7.763008950231D-03    1.920691880780D-02    4.402663075565D-05
  21   -9.425147320540D-06    2.301735028424D-05    8.265340301650D-04
  22    5.541687447699D-03   -1.372039307155D-02    2.563351030738D-02
  23    1.212978402991D-03   -3.002895664899D-03    4.903829771033D-03
  24    1.897012796834D-03   -4.696539443348D-03    8.277153715993D-03
  25   -8.518415538603D-03   -1.154721343650D-02    1.078198749658D-06
  26    1.646021608504D-02    2.231279132645D-02   -2.083413789990D-06
  27    7.544504604316D-06    9.935323838135D-06    1.185674637009D-03
  28    3.283868423107D-04   -8.721028736950D-05   -2.317016226536D-04
  29   -8.721028736950D-05   -2.678367405906D-04    7.666204724951D-04
  30    1.783049492454D-04   -2.563916066774D-05    3.211897150511D-04
  31   -3.270499425466D-03   -1.265228943682D-03    2.569524515496D-07
  32   -1.265228943682D-03   -7.231450157631D-04    1.059326807665D-07
  33    4.368748571844D-07   -2.417331101152D-07    2.203022248573D-03
  34    3.284068585705D-04   -8.731275497099D-05    2.313580168432D-04
  35   -8.731275497099D-05   -2.676007588701D-04   -7.661554687657D-04
  36   -1.783325979277D-04    2.549363740672D-05    3.207351439596D-04
               10                    11                    12
  10    7.927117508114D-02
  11    5.189905133879D-02    4.654214929549D-01
  12   -1.972236571561D-05   -2.596723271675D-04    2.008192126969D-02
  13    8.401661465244D-03   -1.041142141759D-03    4.439117041397D-06
  14   -2.078707038617D-02    2.575954161712D-03   -1.101555948323D-05
  15    1.716947335795D-05   -2.073561353688D-06    8.886763370477D-05
  16    3.722360113966D-06   -3.688536337385D-04   -1.588038089917D-04
  17   -3.688564839695D-04   -2.032807518000D-04   -1.799231040876D-04
  18   -1.510026581302D-04   -1.992244082148D-04    1.897618412888D-04
  19   -9.243113209714D-04   -4.822024715833D-04    1.746291386348D-06
  20   -4.822024908658D-04    3.836226166660D-04    6.845108027162D-07
  21    1.799068052958D-06    5.539328263193D-07    4.949328269486D-04
  22    4.491949289761D-06   -3.682247584296D-04    1.578346440272D-04
  23   -3.682219772130D-04   -2.041746508813D-04    1.798489072165D-04
  24    1.502223871319D-04    1.986828572373D-04    1.900055041560D-04
  25    2.009601545588D-03   -1.646562519098D-03    1.273366045877D-07
  26   -1.646561725730D-03   -6.412836215429D-04    6.364039141236D-07
  27   -3.097518519171D-06   -3.735076837394D-06   -7.841441076802D-03
  28   -2.534022862728D-04    2.278738855594D-04   -1.403311060709D-04
  29    2.278738855594D-04    9.256217789746D-05    6.965693903107D-05
  30   -1.403311060709D-04    6.965693903107D-05    1.627765284683D-04
  31   -1.350167638714D-03    1.779407806414D-05   -3.665178522788D-07
  32    1.779407806414D-05    6.653770507019D-04    3.235521925833D-09
  33   -3.665178522788D-07    3.235521925833D-09    6.655340654367D-04
  34   -2.535110924517D-04    2.279537158028D-04    1.402852413245D-04
  35    2.279537158028D-04    9.257592047279D-05   -6.963400886603D-05
  36    1.402852413245D-04   -6.963400886603D-05    1.628727794781D-04
               13                    14                    15
  13    6.576034581954D-01
  14    1.040255293773D-03    6.442395515988D-01
  15    3.410864556486D-05   -2.033385135292D-05    6.131730450231D-01
  16   -7.878234413558D-02   -2.665499289073D-02   -2.998199870368D-02
  17   -2.695494704138D-02   -1.486882756697D-01   -1.286147094883D-01
  18   -3.051382270948D-02   -1.291413270693D-01   -2.470456945537D-01
  19   -1.879973642823D-01    1.327263865315D-01    3.748764304250D-04
  20    1.336676585976D-01   -2.266621172664D-01   -4.467805217350D-04
  21    3.793012329731D-04   -4.491719069963D-04   -5.934007618941D-02
  22   -7.865285083396D-02   -2.657169989592D-02    2.960536071853D-02
  23   -2.687495306274D-02   -1.497619586767D-01    1.290802161237D-01
  24    3.013715315311D-02    1.296108874659D-01   -2.460402092605D-01
  25   -1.310205375978D-03   -2.194284512285D-04    3.402046413328D-07
  26   -2.194283326757D-04    5.846443928436D-04   -6.573806929343D-07
  27   -1.416844251888D-07   -1.310609659143D-06    5.156356955854D-03
  28    2.381632995639D-04    9.435476177334D-06    7.315336016073D-05
  29    9.435476177334D-06   -1.232347778035D-04    1.908607091821D-06
  30    7.315336016073D-05    1.908607091821D-06   -1.086835002978D-04
  31    2.665918046089D-04    1.774832167197D-04    0.000000000000D+00
  32    1.774832167197D-04   -9.434217642958D-05    0.000000000000D+00
  33    0.000000000000D+00    0.000000000000D+00   -1.669929981722D-04
  34    2.381678189489D-04    9.440849245564D-06   -7.317286470961D-05
  35    9.440849245564D-06   -1.232404629645D-04   -1.910147786133D-06
  36   -7.317286470961D-05   -1.910147786133D-06   -1.086819959026D-04
               16                    17                    18
  16    6.457898472942D-02
  17    2.908112869252D-02    1.395898090269D-01
  18    3.348696844388D-02    1.356902135565D-01    2.418202866700D-01
  19    8.633372792831D-03   -7.176733396303D-03    3.373253271939D-03
  20    7.376211727094D-03   -6.132991374116D-03    2.882965183300D-03
  21    1.923619290205D-02   -1.550753896551D-02    7.178890598959D-03
  22    1.749237419162D-03    4.828647609897D-03   -3.700972926348D-03
  23    4.790164368815D-03    1.830704144026D-02   -1.368283190399D-02
  24    3.701351080801D-03    1.379634797067D-02   -1.032882065824D-02
  25    3.848431293705D-04    1.621152065278D-04    1.365589157149D-04
  26    1.621152065278D-04   -1.825981016048D-04    3.626308250239D-05
  27    1.365589157149D-04    3.626308250239D-05   -1.951011617934D-04
  28   -5.563137332226D-05   -1.488562006233D-05   -3.593575889752D-05
  29   -1.488562006233D-05    3.394597927969D-05   -5.815285271941D-06
  30   -3.593575889752D-05   -5.815285271941D-06    2.231600691569D-05
  31   -5.525112411459D-05   -5.584339903862D-05   -2.308533016874D-05
  32   -5.584339903862D-05    1.544519612668D-05   -1.270877442973D-05
  33   -2.308533016874D-05   -1.270877442973D-05    4.093398139086D-05
  34   -8.495913930244D-05   -2.098415715747D-05   -1.390362245379D-07
  35   -2.098415715747D-05    4.130353915569D-05   -2.250181520279D-08
  36   -1.390362245379D-07   -2.250181520279D-08    4.469949513005D-05
               19                    20                    21
  19    1.810674251902D-01
  20   -1.402248315792D-01    2.191452012887D-01
  21   -3.953902735106D-04    4.716833941709D-04    4.344785605759D-02
  22    8.598572309698D-03    7.450404091818D-03   -1.921281581756D-02
  23   -7.141231637613D-03   -6.186321447503D-03    1.546144700806D-02
  24   -3.408620666581D-03   -2.952523326002D-03    7.267785788347D-03
  25    3.602416589538D-04   -4.713518106858D-05   -2.683394871470D-07
  26   -4.713518106858D-05   -1.753611832514D-04    2.343483101567D-08
  27   -2.683394871470D-07    2.343483101567D-08   -1.794774958178D-04
  28   -5.680401705501D-05    1.233215071500D-05   -1.519254061382D-05
  29    1.233215071500D-05    2.905897413703D-05    2.138796993154D-06
  30   -1.519254061382D-05    2.138796993154D-06    2.816020525355D-05
  31   -9.024593683951D-05   -2.165934140697D-05    6.949360218148D-08
  32   -2.165934140697D-05    4.401937149612D-05    1.093306029604D-08
  33    6.949360218148D-08    1.093306029604D-08    4.742688586304D-05
  34   -5.675557213477D-05    1.232290595120D-05    1.526301665711D-05
  35    1.232290595120D-05    2.904841821351D-05   -2.148589412600D-06
  36    1.526301665711D-05   -2.148589412600D-06    2.812190606926D-05
               22                    23                    24
  22    6.446302682722D-02
  23    2.900703474133D-02    1.407187326518D-01
  24   -3.308804502512D-02   -1.361787437990D-01    2.407668285350D-01
  25    3.849560932418D-04    1.628156971515D-04   -1.362903313336D-04
  26    1.628156971515D-04   -1.824096648556D-04   -3.633162081912D-05
  27   -1.362903313336D-04   -3.633162081912D-05   -1.953996902737D-04
  28   -8.496711839489D-05   -2.109905555086D-05    7.342252448640D-08
  29   -2.109905555086D-05    4.128987008371D-05    1.194503082807D-08
  30    7.342252448640D-08    1.194503082807D-08    4.472241096640D-05
  31   -5.517570038356D-05   -5.591922977465D-05    2.301267094825D-05
  32   -5.591922977465D-05    1.533980417866D-05    1.269531224615D-05
  33    2.301267094825D-05    1.269531224615D-05    4.096399785238D-05
  34   -5.568953617123D-05   -1.498241999279D-05    3.593961416308D-05
  35   -1.498241999279D-05    3.395559446831D-05    5.847585588300D-06
  36    3.593961416308D-05    5.847585588300D-06    2.236621746875D-05
               25                    26                    27
  25    5.761311627369D-01
  26   -2.323424479454D-02    6.420998944871D-01
  27    2.857447384486D-05   -1.616319502773D-05    5.808417170008D-01
  28   -1.378860762806D-01    4.154902299149D-02   -1.209186139682D-01
  29    3.763690656700D-02   -8.438991324449D-02    6.328853743628D-02
  30   -1.162203079959D-01    6.372828472792D-02   -2.438874112681D-01
  31   -6.568812576495D-02    1.200190848952D-02   -6.691848603498D-06
  32    1.889009876805D-02   -3.415376991693D-01   -2.147290995015D-06
  33   -6.447117274826D-06   -4.222861317652D-07   -4.694092471158D-02
  34   -1.378620794644D-01    4.153036995064D-02    1.208937400042D-01
  35    3.761907500007D-02   -8.439064148648D-02   -6.327390456966D-02
  36    1.161967611913D-01   -6.371540937198D-02   -2.439462846298D-01
               28                    29                    30
  28    1.256823226876D-01
  29   -4.134845625619D-02    7.248233564893D-02
  30    1.226835814521D-01   -6.874522537151D-02    2.412666955222D-01
  31    1.515324280196D-03    1.472113701352D-02    4.378527002998D-03
  32    9.404000558109D-05    9.135838612263D-04    2.717284406910D-04
  33    2.903692751530D-03    2.403663718038D-02    6.875232416070D-03
  34    1.463634025459D-02   -8.030900839208D-03   -1.225443256542D-02
  35   -8.030835351977D-03    5.095645179779D-03    6.974140800683D-03
  36    1.224943127023D-02   -6.971352604488D-03   -1.034679463176D-02
               31                    32                    33
  31    5.616533012453D-02
  32   -1.893733201675D-02    3.406652223609D-01
  33    3.046019019064D-06    1.807398172661D-06    3.610856364241D-02
  34    1.515170238833D-03    9.403044587772D-05   -2.900171497474D-03
  35    1.471618407307D-02    9.132764850735D-04   -2.403814327847D-02
  36   -4.375112367368D-03   -2.715165307006D-04    6.875336583391D-03
               34                    35                    36
  34    1.256570028470D-01
  35   -4.132673685638D-02    7.248497670571D-02
  36   -1.226594843030D-01    6.873173333804D-02    2.413256005223D-01
 Leave Link  402 at Thu Mar  2 17:10:56 2017, MaxMem=   134217728 cpu:         0.0
 (Enter /apps/g09/l716.exe)
 FrcOut:
 IF    =   470 IFX   =   515 IFXYZ =   551
 IFFX  =   587 IFFFX =  1253 IFLen =    45
 IFFLen=   666 IFFFLn=     0 IEDerv=  1253
 LEDerv=  1781 IFroze=  3440 ICStrt=  3581
 Dipole        = 3.32415543D-01-1.60598039D+00 5.42017879D-04
 DipoleDeriv   = 7.54205000D-01 0.00000000D+00 0.00000000D+00
                 0.00000000D+00 7.54205000D-01 0.00000000D+00
                 0.00000000D+00 0.00000000D+00 7.54205000D-01
                -5.80972000D-01 0.00000000D+00 0.00000000D+00
                 0.00000000D+00-5.80972000D-01 0.00000000D+00
                 0.00000000D+00 0.00000000D+00-5.80972000D-01
                -4.37191000D-01 0.00000000D+00 0.00000000D+00
                 0.00000000D+00-4.37191000D-01 0.00000000D+00
                 0.00000000D+00 0.00000000D+00-4.37191000D-01
                 3.08758000D-01 0.00000000D+00 0.00000000D+00
                 0.00000000D+00 3.08758000D-01 0.00000000D+00
                 0.00000000D+00 0.00000000D+00 3.08758000D-01
                -4.30739000D-01 0.00000000D+00 0.00000000D+00
                 0.00000000D+00-4.30739000D-01 0.00000000D+00
                 0.00000000D+00 0.00000000D+00-4.30739000D-01
                 1.74137000D-01 0.00000000D+00 0.00000000D+00
                 0.00000000D+00 1.74137000D-01 0.00000000D+00
                 0.00000000D+00 0.00000000D+00 1.74137000D-01
                 1.74137000D-01 0.00000000D+00 0.00000000D+00
                 0.00000000D+00 1.74137000D-01 0.00000000D+00
                 0.00000000D+00 0.00000000D+00 1.74137000D-01
                 1.74137000D-01 0.00000000D+00 0.00000000D+00
                 0.00000000D+00 1.74137000D-01 0.00000000D+00
                 0.00000000D+00 0.00000000D+00 1.74137000D-01
                -6.41370000D-01 0.00000000D+00 0.00000000D+00
                 0.00000000D+00-6.41370000D-01 0.00000000D+00
                 0.00000000D+00 0.00000000D+00-6.41370000D-01
                 1.68299000D-01 0.00000000D+00 0.00000000D+00
                 0.00000000D+00 1.68299000D-01 0.00000000D+00
                 0.00000000D+00 0.00000000D+00 1.68299000D-01
                 1.68299000D-01 0.00000000D+00 0.00000000D+00
                 0.00000000D+00 1.68299000D-01 0.00000000D+00
                 0.00000000D+00 0.00000000D+00 1.68299000D-01
                 1.68299000D-01 0.00000000D+00 0.00000000D+00
                 0.00000000D+00 1.68299000D-01 0.00000000D+00
                 0.00000000D+00 0.00000000D+00 1.68299000D-01
 VibFq2-Diag1:  N=     36 IV=          13 MDV=   134209375 NE2=     3728037
 Full mass-weighted force constant matrix:
 Low frequencies --- -126.7784 -117.8205  -45.5974  -14.6700   -0.0009   -0.0008
 Low frequencies ---   -0.0003   79.0226  179.1565
 OrtVCM:  Ph=1 IPass= 1 DotMx1= 0.00D+00
 OrtVCM:  IS=    1 I=    1 IndO=    1 Dot= 1.00D+00 DotN= 1.00D+00 ElMax1= 4.68D-01 ElMax1N= 4.68D-01
 OrtVCM:  Ph=2 NNew=    0 IAdd=    2 IPass= 1 DotMx2= 0.00D+00
 OrtVCM:  IS=    1 I=    2 IndO=    2 Dot= 1.00D+00 DotN= 1.00D+00 ElMax1= 4.68D-01 ElMax1N= 4.68D-01
 OrtVCM:  Ph=2 NNew=    0 IAdd=    3 IPass= 1 DotMx2= 0.00D+00
 OrtVCM:  IS=    1 I=    3 IndO=    3 Dot= 1.00D+00 DotN= 1.00D+00 ElMax1= 4.68D-01 ElMax1N= 4.68D-01
 OrtVCM:  Ph=2 NNew=    0 IAdd=    4 IPass= 1 DotMx2= 8.33D-17
 OrtVCM:  IS=    1 I=    4 IndO=    4 Dot= 1.00D+00 DotN= 1.00D+00 ElMax1= 7.45D-01 ElMax1N= 7.45D-01
 OrtVCM:  Ph=2 NNew=    0 IAdd=    5 IPass= 1 DotMx2= 3.61D-16
 OrtVCM:  IS=    1 I=    5 IndO=    5 Dot= 1.00D+00 DotN= 1.00D+00 ElMax1= 5.98D-01 ElMax1N= 5.98D-01
 OrtVCM:  Ph=2 NNew=    0 IAdd=    6 IPass= 1 DotMx2= 5.55D-17
 OrtVCM:  IS=    1 I=    6 IndO=    6 Dot= 1.00D+00 DotN= 1.00D+00 ElMax1= 5.17D-01 ElMax1N= 5.17D-01
 OrtVCM:  Ph=1 IPass= 1 DotMx1= 7.45D-01
 OrtVCM:  Ph=1 IPass= 2 DotMx1= 3.50D-16
 OrtVCM:  IS=    1 I=    1 IndO=    7 Dot= 8.35D-01 DotN= 8.35D-01 ElMax1= 8.35D-01 ElMax1N= 8.35D-01
 OrtVCM:  Ph=2 NNew=    0 IAdd=    2 IPass= 1 DotMx2= 3.90D-03
 OrtVCM:  Ph=2 NNew=    0 IAdd=    2 IPass= 2 DotMx2= 2.60D-18
 OrtVCM:  IS=    1 I=    2 IndO=    8 Dot= 8.21D-01 DotN= 8.21D-01 ElMax1= 8.21D-01 ElMax1N= 8.21D-01
 OrtVCM:  Ph=2 NNew=    0 IAdd=    3 IPass= 1 DotMx2= 1.22D-06
 OrtVCM:  Ph=2 NNew=    0 IAdd=    3 IPass= 2 DotMx2= 5.42D-20
 OrtVCM:  IS=    1 I=    3 IndO=    9 Dot= 8.13D-01 DotN= 8.13D-01 ElMax1= 8.13D-01 ElMax1N= 8.13D-01
 OrtVCM:  Ph=2 NNew=    0 IAdd=    4 IPass= 1 DotMx2= 2.20D-01
 OrtVCM:  Ph=2 NNew=    0 IAdd=    4 IPass= 2 DotMx2= 4.16D-17
 OrtVCM:  IS=    1 I=    4 IndO=   10 Dot= 5.67D-01 DotN= 5.67D-01 ElMax1= 5.67D-01 ElMax1N= 5.67D-01
 OrtVCM:  Ph=2 NNew=    0 IAdd=    5 IPass= 1 DotMx2= 2.25D-01
 OrtVCM:  Ph=2 NNew=    0 IAdd=    5 IPass= 2 DotMx2= 6.94D-17
 OrtVCM:  IS=    1 I=    5 IndO=   11 Dot= 7.12D-01 DotN= 7.12D-01 ElMax1= 7.12D-01 ElMax1N= 7.12D-01
 OrtVCM:  Ph=2 NNew=    0 IAdd=    6 IPass= 1 DotMx2= 2.72D-01
 OrtVCM:  Ph=2 NNew=    0 IAdd=    6 IPass= 2 DotMx2= 2.08D-17
 OrtVCM:  IS=    1 I=    6 IndO=   12 Dot= 1.31D-01 DotN= 1.31D-01 ElMax1= 1.31D-01 ElMax1N= 1.31D-01
 OrtVCM:  Ph=2 NNew=    0 IAdd=    7 IPass= 1 DotMx2= 2.19D-01
 OrtVCM:  Ph=2 NNew=    0 IAdd=    7 IPass= 2 DotMx2= 2.78D-17
 OrtVCM:  IS=    1 I=    7 IndO=   13 Dot= 6.85D-01 DotN= 6.85D-01 ElMax1= 6.85D-01 ElMax1N= 6.85D-01
 OrtVCM:  Ph=2 NNew=    0 IAdd=    8 IPass= 1 DotMx2= 2.57D-01
 OrtVCM:  Ph=2 NNew=    0 IAdd=    8 IPass= 2 DotMx2= 3.05D-16
 OrtVCM:  IS=    1 I=    8 IndO=   14 Dot= 6.74D-01 DotN= 6.74D-01 ElMax1= 6.74D-01 ElMax1N= 6.74D-01
 OrtVCM:  Ph=2 NNew=    0 IAdd=    9 IPass= 1 DotMx2= 1.47D-01
 OrtVCM:  Ph=2 NNew=    0 IAdd=    9 IPass= 2 DotMx2= 4.16D-17
 OrtVCM:  IS=    1 I=    9 IndO=   15 Dot= 5.93D-01 DotN= 5.93D-01 ElMax1= 5.93D-01 ElMax1N= 5.93D-01
 OrtVCM:  Ph=2 NNew=    0 IAdd=   10 IPass= 1 DotMx2= 1.09D-01
 OrtVCM:  Ph=2 NNew=    0 IAdd=   10 IPass= 2 DotMx2= 2.78D-17
 OrtVCM:  IS=    1 I=   10 IndO=   16 Dot= 9.54D-01 DotN= 9.54D-01 ElMax1= 9.54D-01 ElMax1N= 9.54D-01
 OrtVCM:  Ph=2 NNew=    0 IAdd=   11 IPass= 1 DotMx2= 1.05D-01
 OrtVCM:  Ph=2 NNew=    0 IAdd=   11 IPass= 2 DotMx2= 5.55D-17
 OrtVCM:  IS=    1 I=   11 IndO=   17 Dot= 9.66D-01 DotN= 9.66D-01 ElMax1= 9.66D-01 ElMax1N= 9.66D-01
 OrtVCM:  Ph=2 NNew=    0 IAdd=   12 IPass= 1 DotMx2= 3.34D-01
 OrtVCM:  Ph=2 NNew=    0 IAdd=   12 IPass= 2 DotMx2= 1.94D-16
 OrtVCM:  IS=    1 I=   12 IndO=   18 Dot= 7.47D-01 DotN= 7.47D-01 ElMax1= 7.47D-01 ElMax1N= 7.47D-01
 OrtVCM:  Ph=2 NNew=    0 IAdd=   13 IPass= 1 DotMx2= 3.39D-01
 OrtVCM:  Ph=2 NNew=    0 IAdd=   13 IPass= 2 DotMx2= 1.94D-16
 OrtVCM:  IS=    1 I=   13 IndO=   19 Dot= 5.96D-01 DotN= 5.96D-01 ElMax1= 5.96D-01 ElMax1N= 5.96D-01
 OrtVCM:  Ph=2 NNew=    0 IAdd=   14 IPass= 1 DotMx2= 4.29D-01
 OrtVCM:  Ph=2 NNew=    0 IAdd=   14 IPass= 2 DotMx2= 9.02D-17
 OrtVCM:  IS=    1 I=   14 IndO=   20 Dot= 2.44D-01 DotN= 2.44D-01 ElMax1= 2.58D-01 ElMax1N= 2.58D-01
 OrtVCM:  Ph=2 NNew=    0 IAdd=   15 IPass= 1 DotMx2= 3.81D-01
 OrtVCM:  Ph=2 NNew=    0 IAdd=   15 IPass= 2 DotMx2= 1.67D-16
 OrtVCM:  IS=    1 I=   15 IndO=   21 Dot= 2.42D-01 DotN= 2.42D-01 ElMax1= 2.57D-01 ElMax1N= 2.57D-01
 OrtVCM:  Ph=2 NNew=    0 IAdd=   16 IPass= 1 DotMx2= 1.57D-01
 OrtVCM:  Ph=2 NNew=    0 IAdd=   16 IPass= 2 DotMx2= 4.86D-17
 OrtVCM:  IS=    1 I=   16 IndO=   22 Dot= 9.07D-01 DotN= 9.07D-01 ElMax1= 9.07D-01 ElMax1N= 9.07D-01
 OrtVCM:  Ph=2 NNew=    0 IAdd=   17 IPass= 1 DotMx2= 4.62D-01
 OrtVCM:  Ph=2 NNew=    0 IAdd=   17 IPass= 2 DotMx2= 8.33D-17
 OrtVCM:  IS=    1 I=   17 IndO=   23 Dot= 5.84D-01 DotN= 5.84D-01 ElMax1= 5.84D-01 ElMax1N= 5.84D-01
 OrtVCM:  Ph=2 NNew=    0 IAdd=   18 IPass= 1 DotMx2= 4.67D-01
 OrtVCM:  Ph=2 NNew=    0 IAdd=   18 IPass= 2 DotMx2= 8.33D-17
 OrtVCM:  IS=    1 I=   18 IndO=   24 Dot= 6.39D-01 DotN= 6.39D-01 ElMax1= 6.39D-01 ElMax1N= 6.39D-01
 OrtVCM:  Ph=2 NNew=    0 IAdd=   19 IPass= 1 DotMx2= 1.45D-01
 OrtVCM:  Ph=2 NNew=    0 IAdd=   19 IPass= 2 DotMx2= 3.47D-17
 OrtVCM:  IS=    1 I=   19 IndO=   25 Dot= 9.36D-01 DotN= 9.36D-01 ElMax1= 9.36D-01 ElMax1N= 9.36D-01
 OrtVCM:  Ph=2 NNew=    0 IAdd=   20 IPass= 1 DotMx2= 5.22D-01
 OrtVCM:  Ph=2 NNew=    0 IAdd=   20 IPass= 2 DotMx2= 2.64D-16
 OrtVCM:  IS=    1 I=   20 IndO=   26 Dot= 4.43D-01 DotN= 4.43D-01 ElMax1= 4.43D-01 ElMax1N= 4.43D-01
 OrtVCM:  Ph=2 NNew=    0 IAdd=   21 IPass= 1 DotMx2= 5.22D-01
 OrtVCM:  Ph=2 NNew=    0 IAdd=   21 IPass= 2 DotMx2= 1.67D-16
 OrtVCM:  IS=    1 I=   21 IndO=   27 Dot= 3.79D-01 DotN= 3.79D-01 ElMax1= 3.79D-01 ElMax1N= 3.79D-01
 OrtVCM:  Ph=2 NNew=    0 IAdd=   22 IPass= 1 DotMx2= 1.76D-01
 OrtVCM:  Ph=2 NNew=    0 IAdd=   22 IPass= 2 DotMx2= 5.55D-17
 OrtVCM:  IS=    1 I=   22 IndO=   28 Dot= 8.47D-01 DotN= 8.47D-01 ElMax1= 8.47D-01 ElMax1N= 8.47D-01
 OrtVCM:  Ph=2 NNew=    0 IAdd=   23 IPass= 1 DotMx2= 6.20D-01
 OrtVCM:  Ph=2 NNew=    0 IAdd=   23 IPass= 2 DotMx2= 1.26D-16
 OrtVCM:  IS=    1 I=   23 IndO=   29 Dot= 1.03D-01 DotN= 1.03D-01 ElMax1= 2.28D-01 ElMax1N= 2.28D-01
 OrtVCM:  Ph=2 NNew=    0 IAdd=   24 IPass= 1 DotMx2= 5.42D-01
 OrtVCM:  Ph=2 NNew=    0 IAdd=   24 IPass= 2 DotMx2= 1.42D-16
 OrtVCM:  IS=    1 I=   24 IndO=   30 Dot= 9.88D-02 DotN= 9.88D-02 ElMax1= 1.79D-01 ElMax1N= 1.79D-01
 OrtVCM:  Ph=2 NNew=    0 IAdd=   25 IPass= 1 DotMx2= 5.11D-01
 OrtVCM:  Ph=2 NNew=    0 IAdd=   25 IPass= 2 DotMx2= 1.25D-16
 OrtVCM:  IS=    1 I=   25 IndO=   31 Dot= 1.96D-01 DotN= 1.96D-01 ElMax1= 2.50D-01 ElMax1N= 2.50D-01
 OrtVCM:  Ph=2 NNew=    0 IAdd=   26 IPass= 1 DotMx2= 3.79D-01
 OrtVCM:  Ph=2 NNew=    0 IAdd=   26 IPass= 2 DotMx2= 2.08D-16
 OrtVCM:  IS=    1 I=   26 IndO=   32 Dot= 1.70D-01 DotN= 1.70D-01 ElMax1= 2.49D-01 ElMax1N= 2.49D-01
 OrtVCM:  Ph=2 NNew=    0 IAdd=   27 IPass= 1 DotMx2= 2.79D-01
 OrtVCM:  Ph=2 NNew=    0 IAdd=   27 IPass= 2 DotMx2= 1.14D-16
 OrtVCM:  IS=    1 I=   27 IndO=   33 Dot= 1.64D-01 DotN= 1.64D-01 ElMax1= 1.90D-01 ElMax1N= 1.90D-01
 OrtVCM:  Ph=2 NNew=    0 IAdd=   28 IPass= 1 DotMx2= 5.70D-01
 OrtVCM:  Ph=2 NNew=    0 IAdd=   28 IPass= 2 DotMx2= 1.39D-16
 OrtVCM:  IS=    1 I=   28 IndO=   34 Dot= 6.97D-02 DotN= 6.97D-02 ElMax1= 1.56D-01 ElMax1N= 1.56D-01
 OrtVCM:  Ph=2 NNew=    0 IAdd=   29 IPass= 1 DotMx2= 5.92D-01
 OrtVCM:  Ph=2 NNew=    0 IAdd=   29 IPass= 2 DotMx2= 4.13D-16
 OrtVCM:  IS=    1 I=   29 IndO=    0 Dot= 6.22D-09 DotN= 6.22D-09 ElMax1= 5.76D-05 ElMax1N= 5.76D-05
 OrtVCM:  Ph=2 NNew=    0 IAdd=   30 IPass= 1 DotMx2= 4.65D-01
 OrtVCM:  Ph=2 NNew=    0 IAdd=   30 IPass= 2 DotMx2= 2.43D-16
 OrtVCM:  IS=    1 I=   30 IndO=   35 Dot= 5.33D-01 DotN= 5.33D-01 ElMax1= 5.33D-01 ElMax1N= 5.33D-01
 SchOr2:  IPass= 1 Test2A= 1.00D-01 IOff=     0 NDo=    30 NNew=    29
 OrtVCM:  Ph=1 IPass= 1 DotMx1= 7.08D-01
 OrtVCM:  Ph=1 IPass= 2 DotMx1= 5.75D-16
 OrtVCM:  IS=    1 I=    1 IndO=   36 Dot= 6.27D-02 DotN= 6.27D-02 ElMax1= 1.40D-01 ElMax1N= 1.40D-01
 SchOr2:  IPass= 1 Test2A= 1.00D-01 IOff=    30 NDo=     1 NNew=     1
 VibFq2-Diag2:  N=     30 IV=          13 MDV=   134209375 NE2=     4473645
 ******    2 imaginary frequencies (negative Signs) ****** 
 Dipole derivatives wrt mode   1:  1.52778D-04 -1.98727D-03 -6.69038D-01
 Vibrational polarizability contributions from mode   1       0.0000000       0.0000073       0.8220800
 Vibrational hyperpolarizability contributions from mode   1       0.0000000       0.0000000       0.0000000
 Dipole derivatives wrt mode   2: -1.58066D-05 -7.61477D-04 -5.21485D-01
 Vibrational polarizability contributions from mode   2       0.0000000       0.0000012       0.5790692
 Vibrational hyperpolarizability contributions from mode   2       0.0000000       0.0000000       0.0000000
 Dipole derivatives wrt mode   3:  7.09682D-04 -4.81352D-04  1.09094D-02
 Vibrational polarizability contributions from mode   3       0.0000004       0.0000002       0.0001047
 Vibrational hyperpolarizability contributions from mode   3       0.0000000       0.0000000       0.0000000
 Dipole derivatives wrt mode   4:  1.49133D+00 -1.76048D+00 -1.13164D-03
 Vibrational polarizability contributions from mode   4       0.7437695       1.0364679       0.0000004
 Vibrational hyperpolarizability contributions from mode   4       0.0000000       0.0000000       0.0000000
 Dipole derivatives wrt mode   5:  6.94340D-04 -5.46553D-04  5.78813D+00
 Vibrational polarizability contributions from mode   5       0.0000001       0.0000001       5.9737468
 Vibrational hyperpolarizability contributions from mode   5       0.0000000       0.0000000       0.0000000
 Dipole derivatives wrt mode   6: -2.27443D+00 -3.83762D-02 -1.96436D-03
 Vibrational polarizability contributions from mode   6       0.7243733       0.0002062       0.0000005
 Vibrational hyperpolarizability contributions from mode   6       0.0000000       0.0000000       0.0000000
 Dipole derivatives wrt mode   7: -2.83949D+00 -8.44680D-01  5.25288D-04
 Vibrational polarizability contributions from mode   7       0.6895912       0.0610234       0.0000000
 Vibrational hyperpolarizability contributions from mode   7       0.0000000       0.0000000       0.0000000
 Dipole derivatives wrt mode   8: -1.44132D-03  5.98000D-03  9.67604D+00
 Vibrational polarizability contributions from mode   8       0.0000001       0.0000016       4.2163815
 Vibrational hyperpolarizability contributions from mode   8       0.0000000       0.0000000       0.0000000
 Dipole derivatives wrt mode   9:  8.81841D-01  9.66399D-02  4.55714D-03
 Vibrational polarizability contributions from mode   9       0.0309058       0.0003712       0.0000008
 Vibrational hyperpolarizability contributions from mode   9       0.0000000       0.0000000       0.0000000
 Dipole derivatives wrt mode  10: -2.10061D-03  1.81745D-03  9.05949D+00
 Vibrational polarizability contributions from mode  10       0.0000001       0.0000001       2.3117193
 Vibrational hyperpolarizability contributions from mode  10       0.0000000       0.0000000       0.0000000
 Dipole derivatives wrt mode  11: -1.17640D+00  1.87295D+00 -5.39537D-03
 Vibrational polarizability contributions from mode  11       0.0365037       0.0925288       0.0000008
 Vibrational hyperpolarizability contributions from mode  11       0.0000000       0.0000000       0.0000000
 Dipole derivatives wrt mode  12:  2.26889D+00 -4.79642D+00 -4.37427D-04
 Vibrational polarizability contributions from mode  12       0.1277642       0.5709749       0.0000000
 Vibrational hyperpolarizability contributions from mode  12       0.0000000       0.0000000       0.0000000
 Dipole derivatives wrt mode  13:  6.70157D-03 -1.40629D-02 -3.57360D+00
 Vibrational polarizability contributions from mode  13       0.0000010       0.0000042       0.2737728
 Vibrational hyperpolarizability contributions from mode  13       0.0000000       0.0000000       0.0000000
 Dipole derivatives wrt mode  14:  3.31868D+00 -4.66135D+00  1.03560D-02
 Vibrational polarizability contributions from mode  14       0.2328433       0.4593640       0.0000023
 Vibrational hyperpolarizability contributions from mode  14       0.0000000       0.0000000       0.0000000
 Dipole derivatives wrt mode  15: -3.78949D+00 -1.51519D-01 -3.80423D-03
 Vibrational polarizability contributions from mode  15       0.2294831       0.0003669       0.0000002
 Vibrational hyperpolarizability contributions from mode  15       0.0000000       0.0000000       0.0000000
 Dipole derivatives wrt mode  16:  2.87233D-03 -1.14972D-03 -4.38995D+00
 Vibrational polarizability contributions from mode  16       0.0000001       0.0000000       0.2508347
 Vibrational hyperpolarizability contributions from mode  16       0.0000000       0.0000000       0.0000000
 Dipole derivatives wrt mode  17: -3.81119D+00  2.01609D+00 -2.38100D-02
 Vibrational polarizability contributions from mode  17       0.1776963       0.0497251       0.0000069
 Vibrational hyperpolarizability contributions from mode  17       0.0000000       0.0000000       0.0000000
 Dipole derivatives wrt mode  18: -2.09440D-02  1.72669D-02  4.71958D+00
 Vibrational polarizability contributions from mode  18       0.0000054       0.0000036       0.2720987
 Vibrational hyperpolarizability contributions from mode  18       0.0000000       0.0000000       0.0000000
 Dipole derivatives wrt mode  19:  8.72006D-01 -4.12373D+00  1.15672D-02
 Vibrational polarizability contributions from mode  19       0.0091764       0.2052161       0.0000016
 Vibrational hyperpolarizability contributions from mode  19       0.0000000       0.0000000       0.0000000
 Dipole derivatives wrt mode  20:  1.62556D+00 -4.32878D+00  1.26917D-03
 Vibrational polarizability contributions from mode  20       0.0307569       0.2181071       0.0000000
 Vibrational hyperpolarizability contributions from mode  20       0.0000000       0.0000000       0.0000000
 Dipole derivatives wrt mode  21: -1.48081D+01 -4.12008D+00 -2.01754D-05
 Vibrational polarizability contributions from mode  21       2.3825155       0.1844369       0.0000000
 Vibrational hyperpolarizability contributions from mode  21       0.0000000       0.0000000       0.0000000
 Dipole derivatives wrt mode  22: -7.20855D+00  9.46320D-01 -1.00341D-03
 Vibrational polarizability contributions from mode  22       0.4793939       0.0082618       0.0000000
 Vibrational hyperpolarizability contributions from mode  22       0.0000000       0.0000000       0.0000000
 Dipole derivatives wrt mode  23:  5.55159D-01  8.56142D+00  3.51125D-04
 Vibrational polarizability contributions from mode  23       0.0022748       0.5410073       0.0000000
 Vibrational hyperpolarizability contributions from mode  23       0.0000000       0.0000000       0.0000000
 Dipole derivatives wrt mode  24: -4.97088D+00 -2.01916D+00  4.15584D-04
 Vibrational polarizability contributions from mode  24       0.0716082       0.0118150       0.0000000
 Vibrational hyperpolarizability contributions from mode  24       0.0000000       0.0000000       0.0000000
 Dipole derivatives wrt mode  25: -2.55366D+00 -1.33441D+00  4.41906D-05
 Vibrational polarizability contributions from mode  25       0.0188754       0.0051540       0.0000000
 Vibrational hyperpolarizability contributions from mode  25       0.0000000       0.0000000       0.0000000
 Dipole derivatives wrt mode  26:  1.35742D-03  6.65478D-03 -2.26665D+00
 Vibrational polarizability contributions from mode  26       0.0000000       0.0000001       0.0138112
 Vibrational hyperpolarizability contributions from mode  26       0.0000000       0.0000000       0.0000000
 Dipole derivatives wrt mode  27:  4.99586D-02 -1.87582D-01 -1.03557D+01
 Vibrational polarizability contributions from mode  27       0.0000067       0.0000945       0.2881333
 Vibrational hyperpolarizability contributions from mode  27       0.0000000       0.0000000       0.0000000
 Dipole derivatives wrt mode  28:  3.62651D-01  3.89974D-01 -5.11991D-01
 Vibrational polarizability contributions from mode  28       0.0003533       0.0004086       0.0007043
 Vibrational hyperpolarizability contributions from mode  28       0.0000000       0.0000000       0.0000000
 Dipole derivatives wrt mode  29:  4.04994D+00 -9.85570D+00  1.75379D-01
 Vibrational polarizability contributions from mode  29       0.0440543       0.2608947       0.0000826
 Vibrational hyperpolarizability contributions from mode  29       0.0000000       0.0000000       0.0000000
 Dipole derivatives wrt mode  30:  1.26345D+00  1.02261D+01 -5.87854D-03
 Vibrational polarizability contributions from mode  30       0.0032237       0.2111836       0.0000001
 Vibrational hyperpolarizability contributions from mode  30       0.0000000       0.0000000       0.0000000
 Diagonal vibrational polarizability:
        6.0351766       3.9176266      15.0025529
 NorSel:  MapVib=      1      2      3      4      5      6      7      8      9     10
 NorSel:  MapVib=     11     12     13     14     15     16     17     18     19     20
 NorSel:  MapVib=     21     22     23     24     25     26     27     28     29     30
 Harmonic frequencies (cm**-1), IR intensities (KM/Mole), Raman scattering
 activities (A**4/AMU), depolarization ratios for plane and unpolarized
 incident light, reduced masses (AMU), force constants (mDyne/A),
 and normal coordinates:
                      1                      2                      3
                      A                      A                      A
 Frequencies --   -121.0488              -112.4200               174.9002
 Red. masses --      1.1234                 1.0188                 2.7444
 Frc consts  --      0.0097                 0.0076                 0.0495
 IR Inten    --      0.4476                 0.2719                 0.0001
  Atom  AN      X      Y      Z        X      Y      Z        X      Y      Z
     1   6     0.00   0.00   0.00     0.00   0.00  -0.02     0.00   0.00   0.20
     2   8     0.00   0.00   0.07     0.00   0.00   0.00     0.00   0.00   0.02
     3   7     0.00   0.00  -0.06     0.00   0.00  -0.01     0.00   0.00   0.22
     4   1     0.00   0.00  -0.12     0.00   0.00  -0.01     0.00   0.00   0.21
     5   6     0.00   0.00  -0.01     0.00   0.00   0.01     0.00   0.00  -0.18
     6   1    -0.15   0.31  -0.19    -0.15   0.32  -0.18     0.19   0.21  -0.36
     7   1     0.00   0.00   0.40     0.00   0.00   0.43     0.00   0.00  -0.16
     8   1     0.15  -0.31  -0.20     0.15  -0.32  -0.19    -0.19  -0.21  -0.36
     9   6     0.00   0.00  -0.01     0.00   0.00   0.02     0.00   0.00  -0.17
    10   1     0.12  -0.31  -0.20    -0.14   0.30   0.21     0.22   0.10  -0.28
    11   1     0.00   0.00   0.45     0.00   0.00  -0.43     0.00   0.00  -0.29
    12   1    -0.12   0.31  -0.20     0.14  -0.30   0.21    -0.22  -0.10  -0.28
                      4                      5                      6
                      A                      A                      A
 Frequencies --    283.6743               388.4916               438.3878
 Red. masses --      3.2045                 4.8578                 3.6077
 Frc consts  --      0.1519                 0.4320                 0.4085
 IR Inten    --      5.3233                33.5025                 5.1745
  Atom  AN      X      Y      Z        X      Y      Z        X      Y      Z
     1   6    -0.03   0.11   0.00     0.00   0.00   0.47     0.02   0.11   0.00
     2   8    -0.19   0.13   0.00     0.00   0.00  -0.20     0.19   0.12   0.00
     3   7    -0.01   0.14   0.00     0.00   0.00  -0.24    -0.16  -0.02   0.00
     4   1    -0.13   0.16   0.00     0.00   0.00  -0.48    -0.26  -0.01   0.00
     5   6     0.14  -0.23   0.00     0.00   0.00   0.07    -0.24   0.00   0.00
     6   1     0.33  -0.30   0.01    -0.20  -0.10   0.18    -0.28   0.01   0.00
     7   1    -0.12  -0.46   0.00     0.00   0.00   0.17    -0.22   0.01   0.00
     8   1     0.33  -0.30  -0.01     0.19   0.10   0.18    -0.28   0.01   0.00
     9   6     0.08  -0.11   0.00     0.00   0.00   0.03     0.19  -0.18   0.00
    10   1     0.04  -0.20   0.00     0.30   0.15  -0.11     0.13  -0.34  -0.01
    11   1     0.26  -0.10   0.00     0.00   0.00  -0.15     0.47  -0.16   0.00
    12   1     0.04  -0.20   0.00    -0.30  -0.15  -0.11     0.13  -0.34   0.01
                      7                      8                      9
                      A                      A                      A
 Frequencies --    560.9326               773.0263               822.8815
 Red. masses --      4.2170                 1.1360                 3.5417
 Frc consts  --      0.7818                 0.4000                 1.4130
 IR Inten    --      8.7762                93.6258                 0.7870
  Atom  AN      X      Y      Z        X      Y      Z        X      Y      Z
     1   6    -0.13   0.01   0.00     0.00   0.00   0.01     0.06   0.11   0.00
     2   8     0.26  -0.02   0.00     0.00   0.00   0.02    -0.04   0.25   0.00
     3   7    -0.01   0.19   0.00     0.00   0.00  -0.09     0.10  -0.26   0.00
     4   1     0.00   0.20   0.00     0.00   0.00   0.97     0.13  -0.29   0.00
     5   6     0.12   0.03   0.00     0.00   0.00  -0.01     0.07  -0.03   0.00
     6   1     0.26  -0.01   0.00    -0.09  -0.04   0.03    -0.17   0.09  -0.04
     7   1    -0.02  -0.09   0.00     0.00   0.00   0.03     0.45   0.29   0.00
     8   1     0.26   0.00   0.00     0.09   0.04   0.03    -0.17   0.09   0.04
     9   6    -0.29  -0.18   0.00     0.00   0.00   0.00    -0.16  -0.07   0.00
    10   1    -0.38  -0.32   0.01     0.10   0.02  -0.05    -0.30  -0.27   0.01
    11   1    -0.18  -0.18   0.00     0.00   0.00  -0.06    -0.02  -0.06   0.00
    12   1    -0.38  -0.32  -0.01    -0.10  -0.02  -0.05    -0.30  -0.27  -0.01
                     10                     11                     12
                      A                      A                      A
 Frequencies --    977.4687              1010.0769              1041.2988
 Red. masses --      1.3252                 1.5019                 1.7825
 Frc consts  --      0.7460                 0.9028                 1.1388
 IR Inten    --     82.0744                 4.8919                28.1535
  Atom  AN      X      Y      Z        X      Y      Z        X      Y      Z
     1   6     0.00   0.00   0.09     0.09   0.00   0.00     0.07  -0.01   0.00
     2   8     0.00   0.00  -0.01     0.00   0.06   0.00    -0.01  -0.02   0.00
     3   7     0.00   0.00  -0.01     0.07   0.04   0.00     0.16   0.06   0.00
     4   1     0.00   0.00   0.14     0.12   0.04   0.00     0.46   0.03   0.00
     5   6     0.00   0.00   0.00    -0.08  -0.02   0.00    -0.14  -0.03   0.00
     6   1    -0.01   0.00   0.00    -0.10  -0.07   0.04    -0.17  -0.14   0.07
     7   1     0.00   0.00   0.01    -0.22  -0.13   0.00    -0.40  -0.25   0.00
     8   1     0.01   0.00   0.00    -0.10  -0.07  -0.04    -0.17  -0.14  -0.07
     9   6     0.00   0.00  -0.14    -0.01  -0.13   0.00    -0.07   0.08   0.00
    10   1    -0.61  -0.11   0.19     0.11   0.30   0.08    -0.23  -0.26  -0.02
    11   1     0.00   0.00   0.31    -0.77  -0.20   0.00     0.38   0.12   0.00
    12   1     0.61   0.11   0.19     0.11   0.30  -0.08    -0.23  -0.26   0.02
                     13                     14                     15
                      A                      A                      A
 Frequencies --   1120.4104              1128.2352              1297.6935
 Red. masses --      1.3148                 1.4657                 1.6592
 Frc consts  --      0.9724                 1.0993                 1.6462
 IR Inten    --     12.7708                32.7419                14.3832
  Atom  AN      X      Y      Z        X      Y      Z        X      Y      Z
     1   6     0.00   0.00   0.00     0.02   0.00   0.00     0.23   0.00   0.00
     2   8     0.00   0.00   0.00    -0.01   0.03   0.00    -0.04  -0.05   0.00
     3   7     0.00   0.00  -0.08    -0.03  -0.11   0.00    -0.03   0.03   0.00
     4   1     0.00   0.00   0.06     0.01  -0.13   0.00    -0.79   0.14   0.00
     5   6     0.00   0.00   0.14    -0.02   0.15   0.00     0.00   0.01   0.00
     6   1     0.52   0.34  -0.17     0.51  -0.14   0.12     0.00   0.06  -0.03
     7   1     0.00   0.00  -0.38    -0.52  -0.26   0.00    -0.01   0.01   0.00
     8   1    -0.51  -0.34  -0.17     0.52  -0.14  -0.12     0.00   0.06   0.03
     9   6     0.00   0.00   0.00    -0.01   0.00   0.00    -0.02   0.02   0.00
    10   1     0.00   0.00   0.00    -0.02  -0.03   0.00    -0.28  -0.20   0.08
    11   1     0.00   0.00   0.01     0.00   0.00   0.00    -0.18   0.02   0.00
    12   1     0.00  -0.01   0.00    -0.02  -0.03   0.00    -0.28  -0.20  -0.08
                     16                     17                     18
                      A                      A                      A
 Frequencies --   1437.9124              1483.1597              1484.2501
 Red. masses --      1.0337                 1.1334                 1.0301
 Frc consts  --      1.2593                 1.4690                 1.3371
 IR Inten    --     19.2717                18.5903                22.2752
  Atom  AN      X      Y      Z        X      Y      Z        X      Y      Z
     1   6     0.00   0.00   0.02    -0.03   0.01   0.00     0.00   0.00   0.00
     2   8     0.00   0.00   0.00     0.00  -0.01   0.00     0.00   0.00   0.00
     3   7     0.00   0.00   0.00    -0.02   0.00   0.00     0.00   0.00  -0.02
     4   1     0.00   0.00  -0.01     0.20  -0.03   0.00     0.00   0.00   0.01
     5   6     0.00   0.00   0.00    -0.01   0.00   0.00     0.00   0.00  -0.04
     6   1     0.00   0.00   0.00     0.04  -0.06   0.03     0.46  -0.23   0.02
     7   1     0.00   0.00   0.00     0.08   0.07   0.00     0.00   0.00   0.68
     8   1     0.00   0.00   0.00     0.04  -0.06  -0.03    -0.46   0.23   0.02
     9   6     0.00   0.00   0.04     0.10  -0.02   0.00     0.00   0.00   0.00
    10   1    -0.13  -0.51  -0.04    -0.47   0.19   0.45     0.00   0.00   0.00
    11   1     0.00   0.00  -0.66     0.05  -0.03   0.00     0.00   0.00   0.00
    12   1     0.13   0.51  -0.04    -0.47   0.19  -0.45     0.00   0.00   0.00
                     19                     20                     21
                      A                      A                      A
 Frequencies --   1493.3141              1520.5388              1573.7947
 Red. masses --      1.0329                 1.2002                 1.5141
 Frc consts  --      1.3571                 1.6350                 2.2095
 IR Inten    --     17.7657                21.3808               236.2549
  Atom  AN      X      Y      Z        X      Y      Z        X      Y      Z
     1   6     0.00   0.00   0.00     0.00   0.01   0.00    -0.11   0.01   0.00
     2   8     0.00  -0.01   0.00     0.00  -0.01   0.00     0.01   0.00   0.00
     3   7     0.00   0.01   0.00    -0.05   0.01   0.00     0.04  -0.04   0.00
     4   1    -0.10   0.03   0.00     0.40  -0.04   0.00    -0.24  -0.01   0.00
     5   6    -0.01   0.04   0.00    -0.03  -0.02   0.00     0.13   0.06   0.00
     6   1    -0.04  -0.50   0.39     0.14   0.01  -0.06    -0.43  -0.03   0.19
     7   1     0.28   0.32   0.00     0.15   0.13   0.00    -0.36  -0.39   0.00
     8   1    -0.04  -0.49  -0.39     0.14   0.00   0.06    -0.43  -0.03  -0.19
     9   6    -0.01   0.00   0.00     0.08   0.07   0.00     0.08   0.04   0.00
    10   1     0.04  -0.02  -0.04    -0.05  -0.42  -0.08    -0.08  -0.17   0.04
    11   1    -0.01   0.00   0.00    -0.61   0.05   0.00    -0.29   0.03   0.00
    12   1     0.04  -0.02   0.04    -0.05  -0.42   0.08    -0.08  -0.17  -0.04
                     22                     23                     24
                      A                      A                      A
 Frequencies --   1707.9227              1909.4612              3047.3255
 Red. masses --      2.5553                11.3377                 1.0453
 Frc consts  --      4.3917                24.3555                 5.7190
 IR Inten    --     52.8587                73.6061                28.7867
  Atom  AN      X      Y      Z        X      Y      Z        X      Y      Z
     1   6    -0.20  -0.01   0.00    -0.02   0.80   0.00     0.00   0.00   0.00
     2   8     0.02   0.02   0.00    -0.03  -0.43   0.00     0.00   0.00   0.00
     3   7     0.24  -0.03   0.00     0.09  -0.12   0.00     0.00   0.00   0.00
     4   1    -0.70   0.10   0.00     0.11  -0.17   0.00     0.00  -0.01   0.00
     5   6    -0.16  -0.04   0.00    -0.02   0.01   0.00     0.05   0.02   0.00
     6   1     0.32   0.03  -0.17     0.04   0.02  -0.02    -0.10  -0.30  -0.43
     7   1     0.11   0.24   0.00    -0.05   0.00   0.00    -0.38   0.41   0.00
     8   1     0.32   0.03   0.17     0.04   0.02   0.02    -0.10  -0.31   0.43
     9   6     0.07   0.03   0.00    -0.04  -0.09   0.00     0.02   0.01   0.00
    10   1    -0.04  -0.08   0.04     0.11   0.09  -0.04    -0.10   0.05  -0.15
    11   1    -0.16   0.03   0.00    -0.13  -0.15   0.00     0.01  -0.19   0.00
    12   1    -0.04  -0.08  -0.04     0.11   0.09   0.04    -0.10   0.05   0.15
                     25                     26                     27
                      A                      A                      A
 Frequencies --   3049.1641              3163.9962              3164.8329
 Red. masses --      1.0450                 1.1156                 1.1165
 Frc consts  --      5.7241                 6.5803                 6.5891
 IR Inten    --      8.3018                 5.1378               107.2790
  Atom  AN      X      Y      Z        X      Y      Z        X      Y      Z
     1   6     0.00   0.00   0.00     0.00   0.00   0.00     0.00   0.00   0.00
     2   8     0.00   0.00   0.00     0.00   0.00   0.00     0.00   0.00   0.00
     3   7     0.00   0.00   0.00     0.00   0.00   0.00     0.00   0.00   0.00
     4   1     0.00   0.01   0.00     0.00   0.00   0.00     0.00   0.00   0.00
     5   6    -0.02  -0.01   0.00     0.00   0.00  -0.06     0.00   0.00   0.08
     6   1     0.03   0.11   0.15     0.06   0.22   0.33    -0.09  -0.33  -0.49
     7   1     0.13  -0.14   0.00     0.00   0.00   0.01     0.03  -0.03  -0.02
     8   1     0.03   0.11  -0.15    -0.06  -0.22   0.32     0.08   0.31  -0.46
     9   6     0.05   0.02   0.00     0.00   0.00   0.08     0.00   0.00   0.06
    10   1    -0.28   0.15  -0.43    -0.29   0.16  -0.47    -0.21   0.11  -0.33
    11   1     0.02  -0.55   0.00     0.00   0.00  -0.01     0.00   0.02  -0.01
    12   1    -0.28   0.15   0.43     0.29  -0.16  -0.48     0.20  -0.11  -0.32
                     28                     29                     30
                      A                      A                      A
 Frequencies --   3164.9220              3165.3477              3650.4556
 Red. masses --      1.1198                 1.1200                 1.0828
 Frc consts  --      6.6089                 6.6114                 8.5016
 IR Inten    --      0.5457               113.5676               106.1697
  Atom  AN      X      Y      Z        X      Y      Z        X      Y      Z
     1   6     0.00   0.00   0.00     0.00   0.00   0.00     0.00   0.00   0.00
     2   8     0.00   0.00   0.00     0.00   0.00   0.00     0.00   0.00   0.00
     3   7     0.00   0.00   0.00     0.00   0.00   0.00    -0.01  -0.08   0.00
     4   1     0.01   0.01   0.00    -0.01   0.00   0.00     0.13   0.99   0.00
     5   6     0.03  -0.07   0.00    -0.02   0.06   0.00     0.00   0.00   0.00
     6   1     0.04   0.16   0.22    -0.04  -0.16  -0.21     0.00   0.00   0.00
     7   1    -0.39   0.45   0.00     0.35  -0.41   0.00    -0.01   0.00   0.00
     8   1     0.05   0.20  -0.27    -0.04  -0.17   0.23     0.00   0.00   0.00
     9   6    -0.03   0.06   0.00    -0.03   0.07   0.00     0.00   0.00   0.00
    10   1     0.14  -0.08   0.21     0.16  -0.10   0.25     0.00   0.00   0.00
    11   1     0.04  -0.54   0.00     0.04  -0.60   0.00     0.00   0.01   0.00
    12   1     0.15  -0.09  -0.23     0.16  -0.10  -0.24     0.00   0.00   0.00

 -------------------
 - Thermochemistry -
 -------------------
 Temperature   298.150 Kelvin.  Pressure   1.00000 Atm.
 Atom     1 has atomic number  6 and mass  12.00000
 Atom     2 has atomic number  8 and mass  15.99491
 Atom     3 has atomic number  7 and mass  14.00307
 Atom     4 has atomic number  1 and mass   1.00783
 Atom     5 has atomic number  6 and mass  12.00000
 Atom     6 has atomic number  1 and mass   1.00783
 Atom     7 has atomic number  1 and mass   1.00783
 Atom     8 has atomic number  1 and mass   1.00783
 Atom     9 has atomic number  6 and mass  12.00000
 Atom    10 has atomic number  1 and mass   1.00783
 Atom    11 has atomic number  1 and mass   1.00783
 Atom    12 has atomic number  1 and mass   1.00783
 Molecular mass:    73.05276 amu.
 Principal axes and moments of inertia in atomic units:
                           1         2         3
     Eigenvalues --   179.85555 470.61079 627.94611
           X            0.99943   0.03388   0.00001
           Y           -0.03388   0.99943  -0.00003
           Z           -0.00001   0.00003   1.00000
 This molecule is an asymmetric top.
 Rotational symmetry number  1.
 Rotational temperatures (Kelvin)      0.48157     0.18405     0.13793
 Rotational constants (GHZ):          10.03439     3.83489     2.87404
    2 imaginary frequencies ignored.
 Zero-point vibrational energy     269362.4 (Joules/Mol)
                                   64.37916 (Kcal/Mol)
 Warning -- explicit consideration of   5 degrees of freedom as
           vibrations may cause significant error
 Vibrational temperatures:    251.64   408.14   558.95   630.74   807.06
          (Kelvin)           1112.21  1183.94  1406.36  1453.27  1498.19
                             1612.02  1623.28  1867.09  2068.83  2133.93
                             2135.50  2148.54  2187.71  2264.34  2457.32
                             2747.29  4384.42  4387.06  4552.28  4553.48
                             4553.61  4554.22  5252.18
 
 Zero-point correction=                           0.102595 (Hartree/Particle)
 Thermal correction to Energy=                    0.107602
 Thermal correction to Enthalpy=                  0.108546
 Thermal correction to Gibbs Free Energy=         0.074610
 Sum of electronic and zero-point Energies=              0.024119
 Sum of electronic and thermal Energies=                 0.029127
 Sum of electronic and thermal Enthalpies=               0.030071
 Sum of electronic and thermal Free Energies=           -0.003865
 
                     E (Thermal)             CV                S
                      KCal/Mol        Cal/Mol-Kelvin    Cal/Mol-Kelvin
 Total                   67.521             17.127             71.424
 Electronic               0.000              0.000              0.000
 Translational            0.889              2.981             38.782
 Rotational               0.889              2.981             25.478
 Vibrational             65.744             11.165              7.164
 Vibration     1          0.627              1.873              2.382
 Vibration     2          0.682              1.704              1.511
 Vibration     3          0.757              1.495              1.006
 Vibration     4          0.799              1.386              0.832
 Vibration     5          0.917              1.116              0.522
                       Q            Log10(Q)             Ln(Q)
 Total Bot       0.480481D-34        -34.318323        -79.020860
 Total V=0       0.744509D+13         12.871870         29.638575
 Vib (Bot)       0.237228D-46        -46.624834       -107.357648
 Vib (Bot)    1  0.115037D+01          0.060837          0.140082
 Vib (Bot)    2  0.676435D+00         -0.169774         -0.390919
 Vib (Bot)    3  0.462622D+00         -0.334774         -0.770845
 Vib (Bot)    4  0.394839D+00         -0.403580         -0.929276
 Vib (Bot)    5  0.276827D+00         -0.557792         -1.284363
 Vib (V=0)       0.367586D+01          0.565359          1.301787
 Vib (V=0)    1  0.175433D+01          0.244112          0.562088
 Vib (V=0)    2  0.134117D+01          0.127483          0.293541
 Vib (V=0)    3  0.118119D+01          0.072320          0.166522
 Vib (V=0)    4  0.113710D+01          0.055799          0.128482
 Vib (V=0)    5  0.107152D+01          0.030000          0.069077
 Electronic      0.100000D+01          0.000000          0.000000
 Translational   0.245420D+08          7.389910         17.015897
 Rotational      0.825278D+05          4.916600         11.320891
[...]
     45 -0.805667D-04 -0.851703D-02  0.914859D-02  0.487267D-04  0.395069D-04
               26            27            28            29            30 
     26  0.991844D-01
     27  0.958018D-02  0.561919D-01
     28 -0.345307D-01  0.690220D-02  0.510105D-01
     29 -0.402545D-01  0.964905D-02  0.690060D-02  0.561810D-01
     30  0.647522D-04 -0.163104D-03  0.000000D+00  0.163828D-03  0.844402D-02
     31 -0.759489D-04 -0.854698D-04  0.000000D+00  0.853113D-04  0.592686D-02
     32  0.329533D-03 -0.964414D-04  0.000000D+00  0.973682D-04  0.701235D-02
     33  0.188831D-03 -0.188071D-04  0.000000D+00  0.188513D-04  0.449519D-02
     34  0.696712D-02 -0.926437D-02  0.113195D-01  0.535223D-03 -0.724561D-03
     35 -0.520224D-02  0.681324D-02  0.101639D-05 -0.681404D-02 -0.981411D-03
     36  0.937207D-03 -0.536289D-03 -0.113209D-01  0.926726D-02 -0.725219D-03
     37  0.670168D-02 -0.933120D-02  0.113197D-01  0.601848D-03  0.710696D-03
     38 -0.546768D-02  0.674641D-02  0.119654D-05 -0.674741D-02  0.453846D-03
     39  0.671765D-03 -0.603121D-03 -0.113207D-01  0.933388D-02  0.710038D-03
     40  0.915648D-04 -0.486683D-04 -0.107936D-04  0.181531D-04  0.129895D-02
     41  0.115610D-03 -0.485649D-04  0.000000D+00  0.483703D-04  0.116994D-02
     42  0.921522D-05 -0.184052D-04  0.106074D-04  0.483681D-04  0.130243D-02
     43 -0.483488D-04  0.294465D-04 -0.106426D-04 -0.594569D-04 -0.121130D-02
     44 -0.243033D-04  0.295499D-04  0.000000D+00 -0.292397D-04 -0.134031D-02
     45 -0.130698D-03  0.597096D-04  0.107584D-04 -0.292420D-04 -0.120782D-02
               31            32            33            34            35 
     31  0.859931D-02
     32  0.438031D-02  0.892309D-02
     33  0.705277D-02  0.629106D-02  0.884863D-02
     34 -0.822885D-03  0.107168D-02  0.973356D-03  0.129115D-01
     35 -0.877187D-03  0.707669D-03  0.811894D-03 -0.466557D-02  0.785983D-02
     36 -0.823049D-03  0.107134D-02  0.973509D-03 -0.391911D-02 -0.466638D-02
     37  0.727535D-03 -0.843847D-03 -0.827008D-03  0.111107D-01 -0.635888D-02
     38  0.673233D-03 -0.120786D-02 -0.988471D-03 -0.646635D-02  0.616652D-02
     39  0.727370D-03 -0.844188D-03 -0.826856D-03 -0.571990D-02 -0.635969D-02
     40 -0.124281D-02  0.130541D-02 -0.123635D-02  0.321261D-04 -0.637522D-04
     41 -0.165790D-02  0.137421D-02 -0.145363D-02  0.137903D-03 -0.839378D-05
     42 -0.124051D-02  0.130707D-02 -0.123587D-02 -0.143934D-05 -0.644736D-04
     43  0.142231D-02 -0.131941D-02  0.131420D-02 -0.655559D-04  0.401877D-04
     44  0.100722D-02 -0.125061D-02  0.109693D-02  0.402207D-04  0.955461D-04
     45  0.142461D-02 -0.131774D-02  0.131469D-02 -0.991213D-04  0.394663D-04
               36            37            38            39            40 
     36  0.129123D-01
     37 -0.572012D-02  0.126691D-01
     38 -0.646739D-02 -0.480049D-02  0.783239D-02
     39  0.111113D-01 -0.416173D-02 -0.480152D-02  0.126694D-01
     40  0.000000D+00  0.257165D-04 -0.701617D-04 -0.683488D-05  0.131020D-01
     41  0.138103D-03 -0.668769D-04 -0.213173D-03 -0.666768D-04 -0.447551D-02
     42  0.313128D-04 -0.615571D-05 -0.691899D-04  0.265965D-04 -0.456793D-02
     43 -0.983609D-04  0.428825D-04  0.148626D-03  0.100775D-04  0.105668D-01
     44  0.401672D-04 -0.497109D-04  0.561452D-05 -0.497644D-04 -0.701069D-02
     45 -0.666228D-04  0.110103D-04  0.149598D-03  0.435088D-04 -0.710310D-02
               41            42            43            44            45 
     41  0.129596D-01
     42 -0.447166D-02  0.131079D-01
     43 -0.729563D-02 -0.710358D-02  0.131929D-01
     44  0.101395D-01 -0.700732D-02 -0.466956D-02  0.124806D-01
     45 -0.729178D-02  0.105722D-01 -0.447751D-02 -0.466619D-02  0.131978D-01
 Final forces over variables, Energy=-7.84753602D-02:
 -6.57253812D-03 2.94580963D-03-1.12236593D-02-2.04340598D-03
  1.50724478D-02 1.56230083D-03 1.96669949D-03 1.66863743D-03
 -1.42422823D-03-2.66839736D-03-1.47387436D-03 7.63031494D-03
 -5.31645996D-03-2.31385477D-03-1.25300057D-02 1.23576797D-02
  1.72340909D-04-1.31819999D-03 8.29898301D-03-1.28502575D-03
 -2.65309674D-03-5.30952943D-04-2.67518764D-03 4.90217971D-04
 -5.49770791D-03 4.98994399D-04 1.65477306D-04 4.77033672D-03
  1.67573208D-04 1.49479401D-05-1.88446275D-06 1.58094178D-05
 -1.02298505D-06 3.12039316D-03-2.05096344D-06-3.11403114D-03
  3.11821916D-03-4.22496339D-06-3.11620514D-03-1.18089897D-03
  7.36382803D-06 1.18742581D-03-1.19037906D-03-2.11626258D-06
  1.17794572D-03
 Leave Link  716 at Thu Mar  2 17:10:57 2017, MaxMem=   134217728 cpu:         0.0
 (Enter /apps/g09/l103.exe)

 GradGradGradGradGradGradGradGradGradGradGradGradGradGradGradGradGradGrad
 Berny optimization.
 Red2BG is reusing G-inverse.
 Internal  Forces:  Max     0.015072448 RMS     0.004751470
 Search for a local minimum.
 Step number   1 out of a maximum of    2
 All quantities printed in internal units (Hartrees-Bohrs-Radians)
 Second derivative matrix not updated -- analytic derivatives used.
 ITU=  0
     Eigenvalues ---   -0.00172   0.00004   0.00834   0.01293   0.02628
     Eigenvalues ---    0.04958   0.05958   0.06018   0.06087   0.12899
     Eigenvalues ---    0.13351   0.13983   0.14889   0.15790   0.16465
     Eigenvalues ---    0.17905   0.18013   0.22913   0.27485   0.29604
     Eigenvalues ---    0.34155   0.34193   0.34212   0.34270   0.34287
     Eigenvalues ---    0.34288   0.34951   0.45642   0.47252   0.77648
 Eigenvalue     1 is  -1.72D-03 should be greater than     0.000000 Eigenvector:
                          D9        D6        D10       D8        D7
   1                    0.47387   0.45492   0.38366   0.38365   0.36471
                          D5        A18       A16       A15       A13
   1                    0.36470  -0.05343   0.05342  -0.02980   0.02979
 Angle between quadratic step and forces=  36.85 degrees.
 Linear search not attempted -- first point.
 Iteration  1 RMS(Cart)=  0.05013074 RMS(Int)=  0.00117746
 Iteration  2 RMS(Cart)=  0.00143056 RMS(Int)=  0.00026519
 Iteration  3 RMS(Cart)=  0.00000066 RMS(Int)=  0.00026519
 ITry= 1 IFail=0 DXMaxC= 1.54D-01 DCOld= 1.00D+10 DXMaxT= 3.00D-01 DXLimC= 3.00D+00 Rises=F
 Variable       Old X    -DE/DX   Delta X   Delta X   Delta X     New X
                                 (Linear)    (Quad)   (Total)
    R1        2.32265  -0.00657   0.00000  -0.01027  -0.01027   2.31238
    R2        2.57990   0.00295   0.00000   0.00061   0.00061   2.58051
    R3        2.87388  -0.01122   0.00000  -0.03896  -0.03896   2.83492
    R4        1.90743  -0.00204   0.00000  -0.00461  -0.00461   1.90282
    R5        2.75208   0.01507   0.00000   0.03896   0.03896   2.79104
    R6        2.06965   0.00156   0.00000   0.00409   0.00409   2.07374
    R7        2.06493   0.00197   0.00000   0.00591   0.00591   2.07084
    R8        2.06936   0.00167   0.00000   0.00452   0.00452   2.07388
    R9        2.06870  -0.00142   0.00000  -0.00417  -0.00417   2.06453
   R10        2.06995  -0.00267   0.00000  -0.00780  -0.00780   2.06215
   R11        2.06884  -0.00147   0.00000  -0.00432  -0.00432   2.06453
    A1        2.12536   0.00763   0.00000   0.01482   0.01482   2.14018
    A2        2.12938  -0.00532   0.00000  -0.01733  -0.01733   2.11205
    A3        2.02845  -0.00231   0.00000   0.00251   0.00251   2.03095
    A4        2.08309  -0.01253   0.00000  -0.07719  -0.07719   2.00590
    A5        2.12191   0.01236   0.00000   0.06249   0.06249   2.18440
    A6        2.07819   0.00017   0.00000   0.01470   0.01470   2.09289
    A7        1.93297  -0.00132   0.00000  -0.00973  -0.00991   1.92306
    A8        1.89720   0.00830   0.00000   0.05160   0.05146   1.94867
    A9        1.93278  -0.00129   0.00000  -0.00969  -0.00987   1.92291
   A10        1.90735  -0.00265   0.00000  -0.00881  -0.00895   1.89840
   A11        1.88581  -0.00053   0.00000  -0.01481  -0.01504   1.87077
   A12        1.90751  -0.00268   0.00000  -0.00928  -0.00941   1.89810
   A13        1.89889   0.00049   0.00000   0.00901   0.00825   1.90715
   A14        1.98638  -0.00550   0.00000  -0.04660  -0.04717   1.93920
   A15        1.89880   0.00050   0.00000   0.00912   0.00836   1.90717
   A16        1.90075   0.00017   0.00000  -0.01875  -0.01933   1.88142
   A17        1.87527   0.00477   0.00000   0.07325   0.07236   1.94763
   A18        1.90066   0.00017   0.00000  -0.01865  -0.01922   1.88144
    D1        3.14091   0.00001   0.00000   0.00065   0.00064   3.14155
    D2        0.00034   0.00000   0.00000  -0.00001   0.00000   0.00034
    D3       -0.00085   0.00002   0.00000   0.00064   0.00063  -0.00022
    D4       -3.14141   0.00000   0.00000  -0.00002  -0.00001  -3.14143
    D5        1.01889   0.00312   0.00000   0.04867   0.04880   1.06769
    D6        3.14159   0.00000   0.00000  -0.00011  -0.00011   3.14148
    D7       -1.01907  -0.00311   0.00000  -0.04868  -0.04880  -1.06787
    D8       -2.12254   0.00312   0.00000   0.04868   0.04880  -2.07374
    D9        0.00016   0.00000   0.00000  -0.00011  -0.00011   0.00006
   D10        2.12268  -0.00312   0.00000  -0.04867  -0.04880   2.07389
   D11        1.04790  -0.00118   0.00000  -0.00309  -0.00304   1.04486
   D12       -3.13963   0.00001   0.00000   0.01282   0.01283  -3.12680
   D13       -1.04390   0.00119   0.00000   0.02817   0.02814  -1.01576
   D14       -2.09267  -0.00119   0.00000  -0.00370  -0.00366  -2.09633
   D15        0.00298   0.00000   0.00000   0.01222   0.01221   0.01519
   D16        2.09871   0.00118   0.00000   0.02757   0.02752   2.12623
         Item               Value     Threshold  Converged?
 Maximum Force            0.015072     0.000450     NO 
 RMS     Force            0.004751     0.000300     NO 
 Maximum Displacement     0.153975     0.001800     NO 
 RMS     Displacement     0.050159     0.001200     NO 
 Predicted change in Energy=-2.451116D-03
 GradGradGradGradGradGradGradGradGradGradGradGradGradGradGradGradGradGrad

 Leave Link  103 at Thu Mar  2 17:10:57 2017, MaxMem=   134217728 cpu:         0.0
 (Enter /apps/g09/l9999.exe)

 Test job not archived.
 1\1\GINC-UBUNTU-RESEARCH\Freq\RAMBER\ZDO\C3H7N1O1\RUIXINGW\02-Mar-2017
 \0\\#p amber=softonly geom=connectivity nosymm iop(4/33=3,7/33=1) freq
 =intmodes\\final\\0,1\C,-0.4833461501,0.1599193204,0.\O,-0.3838723069,
 1.3849808099,0.\N,0.6152849134,-0.6505442766,-0.0001993876\H,0.4911520
 119,-1.6522517923,0.000410447\C,1.9655055754,-0.104815604,0.\H,2.13358
 6407,0.5145263343,0.8874956169\H,2.6781946294,-0.9331210218,-0.0022433
 832\H,2.1320936828,0.5181999227,-0.885014379\C,-1.8339895765,-0.539059
 4713,0.\H,-2.3970153988,-0.2186359186,-0.8824502667\H,-1.7661422531,-1
 .6323250001,0.\H,-2.3969041234,-0.2186945298,0.8826374632\\Version=ES6
 4L-G09RevD.01\HF=-0.0784754\RMSD=0.000e+00\RMSF=4.481e-03\ZeroPoint=0.
 1025947\Thermal=0.1076019\Dipole=0.3324155,-1.6059804,0.000542\DipoleD
 eriv=0.754205,0.,0.,0.,0.754205,0.,0.,0.,0.754205,-0.580972,0.,0.,0.,-
 0.580972,0.,0.,0.,-0.580972,-0.437191,0.,0.,0.,-0.437191,0.,0.,0.,-0.4
 37191,0.308758,0.,0.,0.,0.308758,0.,0.,0.,0.308758,-0.430739,0.,0.,0.,
 -0.430739,0.,0.,0.,-0.430739,0.174137,0.,0.,0.,0.174137,0.,0.,0.,0.174
 137,0.174137,0.,0.,0.,0.174137,0.,0.,0.,0.174137,0.174137,0.,0.,0.,0.1
 74137,0.,0.,0.,0.174137,-0.64137,0.,0.,0.,-0.64137,0.,0.,0.,-0.64137,0
 .168299,0.,0.,0.,0.168299,0.,0.,0.,0.168299,0.168299,0.,0.,0.,0.168299
 ,0.,0.,0.,0.168299,0.168299,0.,0.,0.,0.168299,0.,0.,0.,0.168299\PG=C01
  [X(C3H7N1O1)]\NImag=2\\0.71651224,-0.01437884,1.15657774,-0.00007302,
 0.00001331,0.07919158,-0.13477896,-0.06068348,0.00001247,0.10425231,-0
 .05192492,-0.76932835,0.00000087,0.04827085,0.77242877,0.00001320,0.00
 001092,-0.02180108,-0.00001081,0.00000041,0.01490053,-0.35072126,0.120
 42661,0.00006395,0.02570571,-0.00208728,-0.00001085,0.74421343,0.12342
 649,-0.25356514,-0.00002144,0.03484561,-0.00282943,-0.00001582,-0.0061
 4787,0.81974223,0.00005732,-0.00001921,-0.03252156,-0.00000532,0.00000
 043,0.00452995,-0.00002390,-0.00024833,0.10223792,0.01712039,0.0232077
 0,-0.00000862,-0.00054102,-0.00056319,0.00000491,-0.10348863,-0.051364
 27,0.00000875,0.07927118,-0.00212158,-0.00287593,0.00000377,-0.0005631
 8,0.00125156,0.00000423,-0.04578092,-0.46655848,0.00025744,0.05189905,
 0.46542149,-0.00000271,-0.00000476,0.00443378,0.00000151,-0.00000038,0
 .00766855,0.00001599,0.00027456,-0.02629757,-0.00001972,-0.00025967,0.
 02008192,-0.00349998,-0.00474443,-0.00000083,-0.00990850,0.00770662,0.
 00000018,-0.30659680,-0.08277600,-0.00004038,0.00840166,-0.00104114,0.
 00000444,0.65760346,0.00865951,0.01173848,-0.00000069,0.00770662,-0.00
 264226,0.00000171,-0.07609595,-0.13104320,0.00001125,-0.02078707,0.002
 57595,-0.00001102,0.00104026,0.64423955,0.00000234,0.00000134,0.007484
 20,-0.00000102,0.00000008,-0.00369176,-0.00005116,0.00000292,-0.069400
 37,0.00001717,-0.00000207,0.00008887,0.00003411,-0.00002033,0.61317305
 ,-0.00210295,-0.00039476,-0.00098208,0.00023059,-0.00029986,0.00030573
 ,0.00550038,-0.01359945,-0.02568476,0.00000372,-0.00036885,-0.00015880
 ,-0.07878234,-0.02665499,-0.02998200,0.06457898,-0.00039475,0.00075678
 ,-0.00014846,-0.00029986,-0.00053295,-0.00010571,0.00121497,-0.0030042
 2,-0.00494794,-0.00036886,-0.00020328,-0.00017992,-0.02695495,-0.14868
 828,-0.12861471,0.02908113,0.13958981,-0.00098797,-0.00013388,0.000484
 27,0.00030573,-0.00010571,-0.00052885,-0.00188958,0.00467208,0.0083173
 2,-0.00015100,-0.00019922,0.00018976,-0.03051382,-0.12914133,-0.247045
 69,0.03348697,0.13569021,0.24182029,-0.00076278,0.00041327,0.00000087,
 0.00025105,-0.00039336,-0.00000038,-0.00902240,0.02232284,0.00005377,-
 0.00092431,-0.00048220,0.00000175,-0.18799736,0.13272639,0.00037488,0.
 00863337,-0.00717673,0.00337325,0.18106743,0.00041327,0.00028969,-0.00
 000037,-0.00039336,0.00002923,0.00000029,-0.00776301,0.01920692,0.0000
 4403,-0.00048220,0.00038362,0.00000068,0.13366766,-0.22666212,-0.00044
 678,0.00737621,-0.00613299,0.00288297,-0.14022483,0.21914520,0.0000008
 5,-0.00000030,0.00046840,-0.00000038,0.00000029,-0.00026856,-0.0000094
 3,0.00002302,0.00082653,0.00000180,0.00000055,0.00049493,0.00037930,-0
 .00044917,-0.05934008,0.01923619,-0.01550754,0.00717889,-0.00039539,0.
 00047168,0.04344786,-0.00211384,-0.00040084,0.00098436,0.00022056,-0.0
 0029574,-0.00030196,0.00554169,-0.01372039,0.02563351,0.00000449,-0.00
 036822,0.00015783,-0.07865285,-0.02657170,0.02960536,0.00174924,0.0048
 2865,-0.00370097,0.00859857,0.00745040,-0.01921282,0.06446303,-0.00040
 084,0.00075739,0.00014998,-0.00029574,-0.00053599,0.00010403,0.0012129
 8,-0.00300290,0.00490383,-0.00036822,-0.00020417,0.00017985,-0.0268749
 5,-0.14976196,0.12908022,0.00479016,0.01830704,-0.01368283,-0.00714123
 ,-0.00618632,0.01546145,0.02900703,0.14071873,0.00099015,0.00013564,0.
 00048626,-0.00030196,0.00010403,-0.00053166,0.00189701,-0.00469654,0.0
 0827715,0.00015022,0.00019868,0.00019001,0.03013715,0.12961089,-0.2460
 4021,0.00370135,0.01379635,-0.01032882,-0.00340862,-0.00295252,0.00726
 779,-0.03308805,-0.13617874,0.24076683,-0.24322613,-0.05654056,-0.0000
 0049,0.01522023,-0.00123587,0.00000036,-0.00851842,-0.01154721,0.00000
 108,0.00200960,-0.00164656,0.00000013,-0.00131021,-0.00021943,0.000000
 34,0.00038484,0.00016212,0.00013656,0.00036024,-0.00004714,-0.00000027
 ,0.00038496,0.00016282,-0.00013629,0.57613116,-0.05730888,-0.15588550,
 0.00000656,-0.02941019,0.00238808,-0.00000070,0.01646022,0.02231279,-0
 .00000208,-0.00164656,-0.00064128,0.00000064,-0.00021943,0.00058464,-0
 .00000066,0.00016212,-0.00018260,0.00003626,-0.00004714,-0.00017536,0.
 00000002,0.00016282,-0.00018241,-0.00003633,-0.02323424,0.64209989,-0.
 00000114,-0.00000118,-0.04911855,-0.00000018,0.00000001,0.00512084,0.0
 0000754,0.00000994,0.00118567,-0.00000310,-0.00000374,-0.00784144,-0.0
 0000014,-0.00000131,0.00515636,0.00013656,0.00003626,-0.00019510,-0.00
 000027,0.00000002,-0.00017948,-0.00013629,-0.00003633,-0.00019540,0.00
 002857,-0.00001616,0.58084172,-0.00382019,0.00738179,-0.01717504,-0.00
 024347,0.00022800,0.00060688,0.00032839,-0.00008721,-0.00023170,-0.000
 25340,0.00022787,-0.00014033,0.00023816,0.00000944,0.00007315,-0.00005
 563,-0.00001489,-0.00003594,-0.00005680,0.00001233,-0.00001519,-0.0000
 8497,-0.00002110,0.00000007,-0.13788608,0.04154902,-0.12091861,0.12568
 232,-0.00333313,0.00644064,-0.01161281,0.00022800,-0.00034807,-0.00083
 031,-0.00008721,-0.00026784,0.00076662,0.00022787,0.00009256,0.0000696
 6,0.00000944,-0.00012323,0.00000191,-0.00001489,0.00003395,-0.00000582
 ,0.00001233,0.00002906,0.00000214,-0.00002110,0.00004129,0.00000001,0.
 03763691,-0.08438991,0.06328854,-0.04134846,0.07248234,0.00122710,-0.0
 0237113,0.00674143,0.00012546,0.00009994,-0.00111963,0.00017830,-0.000
 02564,0.00032119,-0.00014033,0.00006966,0.00016278,0.00007315,0.000001
 91,-0.00010868,-0.00003594,-0.00000582,0.00002232,-0.00001519,0.000002
 14,0.00002816,0.00000007,0.00000001,0.00004472,-0.11622031,0.06372828,
 -0.24388741,0.12268358,-0.06874523,0.24126670,0.01121210,-0.02166525,0
 .00000034,-0.00016505,0.00036672,0.,-0.00327050,-0.00126523,0.00000026
 ,-0.00135017,0.00001779,-0.00000037,0.00026659,0.00017748,0.,-0.000055
 25,-0.00005584,-0.00002309,-0.00009025,-0.00002166,0.00000007,-0.00005
 518,-0.00005592,0.00002301,-0.06568813,0.01200191,-0.00000669,0.001515
 32,0.01472114,0.00437853,0.05616533,0.00069582,-0.00134453,0.00000002,
 0.00036672,0.00046745,0.,-0.00126523,-0.00072315,0.00000011,0.00001779
 ,0.00066538,0.,0.00017748,-0.00009434,0.,-0.00005584,0.00001545,-0.000
 01271,-0.00002166,0.00004402,0.00000001,-0.00005592,0.00001534,0.00001
 270,0.01889010,-0.34153770,-0.00000215,0.00009404,0.00091358,0.0002717
 3,-0.01893733,0.34066522,-0.00000019,0.00000036,-0.00259056,0.,0.,-0.0
 0315853,0.00000044,-0.00000024,0.00220302,-0.00000037,0.,0.00066553,0.
 ,0.,-0.00016699,-0.00002309,-0.00001271,0.00004093,0.00000007,0.000000
 01,0.00004743,0.00002301,0.00001270,0.00004096,-0.00000645,-0.00000042
 ,-0.04694092,0.00290369,0.02403664,0.00687523,0.00000305,0.00000181,0.
 03610856,-0.00381863,0.00737878,0.01717808,-0.00024346,0.00022802,-0.0
 0060727,0.00032841,-0.00008731,0.00023136,-0.00025351,0.00022795,0.000
 14029,0.00023817,0.00000944,-0.00007317,-0.00008496,-0.00002098,-0.000
 00014,-0.00005676,0.00001232,0.00001526,-0.00005569,-0.00001498,0.0000
 3594,-0.13786208,0.04153037,0.12089374,0.01463634,-0.00803090,-0.01225
 443,0.00151517,0.00009403,-0.00290017,0.12565700,-0.00333214,0.0064387
 4,0.01160925,0.00022802,-0.00034803,0.00083095,-0.00008731,-0.00026760
 ,-0.00076616,0.00022795,0.00009258,-0.00006963,0.00000944,-0.00012324,
 -0.00000191,-0.00002098,0.00004130,-0.00000002,0.00001232,0.00002905,-
 0.00000215,-0.00001498,0.00003396,0.00000585,0.03761908,-0.08439064,-0
 .06327390,-0.00803084,0.00509565,0.00697414,0.01471618,0.00091328,-0.0
 2403814,-0.04132674,0.07248498,-0.00122594,0.00236890,0.00674183,-0.00
 012550,-0.00009998,-0.00111980,-0.00017833,0.00002549,0.00032074,0.000
 14029,-0.00006963,0.00016287,-0.00007317,-0.00000191,-0.00010868,-0.00
 000014,-0.00000002,0.00004470,0.00001526,-0.00000215,0.00002812,0.0000
 3594,0.00000585,0.00002237,0.11619676,-0.06371541,-0.24394628,0.012249
 43,-0.00697135,-0.01034679,-0.00437511,-0.00027152,0.00687534,-0.12265
 948,0.06873173,0.24132560\\0.00766896,0.00587505,0.00001896,0.00608779
 ,0.00609985,0.00000386,0.00498570,-0.00228087,-0.00006146,0.00635755,-
 0.00284686,0.00002517,-0.01126603,0.00661897,-0.00006785,-0.00025605,-
 0.00117399,-0.00106019,-0.00533593,-0.00199666,0.00001149,-0.00029439,
 -0.00123301,0.00114126,0.00148837,-0.01385777,-0.00006040,-0.00342284,
 0.00380776,0.00179968,-0.00256963,-0.00283300,0.00000418,-0.00344349,0
 .00382053,-0.00175472\\\@


 I SUPPOSE A BABY LLAMA HAS A MMAMA AND A PPOPA.
     -- RICHARD AMOUR
 Job cpu time:       0 days  0 hours  0 minutes  0.3 seconds.
 File lengths (MBytes):  RWF=      5 Int=      0 D2E=      0 Chk=      1 Scr=      1
 Normal termination of Gaussian 09 at Thu Mar  2 17:10:57 2017.
