final                                                                   
Freq      RAMBER                                                      ZDO                 
Number of atoms                            I               12
Info1-9                                    I   N=           9
          65          64           0           0           0         101
           6           8         101
Full Title                                 C   N=           1
final       
Route                                      C   N=           7
#p amber=softonly geom=connectivity nosymm iop(4/33=3,7/33=1
) freq=intmodes         
Charge                                     I                0
Multiplicity                               I                1
Number of electrons                        I               16
Number of alpha electrons                  I                8
Number of beta electrons                   I                8
Number of basis functions                  I                0
Number of independent functions            I                0
Number of point charges in /Mol/           I                0
Number of translation vectors              I                0
Atomic numbers                             I   N=          12
           6           8           7           1           6           1
           1           1           6           1           1           1
Nuclear charges                            R   N=          12
  2.00000000E+00  2.00000000E+00  1.00000000E+00  1.00000000E+00  2.00000000E+00
  1.00000000E+00  1.00000000E+00  1.00000000E+00  2.00000000E+00  1.00000000E+00
  1.00000000E+00  1.00000000E+00
Current cartesian coordinates              R   N=          36
 -9.13391851E-01  3.02203719E-01  0.00000000E+00 -7.25413530E-01  2.61723443E+00
  0.00000000E+00  1.16271998E+00 -1.22935052E+00 -3.76787960E-04  9.28142792E-01
 -3.12230339E+00  7.75632329E-04  3.71426725E+00 -1.98072786E-01  0.00000000E+00
  4.03189399E+00  9.72313860E-01  1.67712366E+00  5.06105438E+00 -1.76334318E+00
 -4.23937990E-03  4.02907315E+00  9.79255936E-01 -1.67243480E+00 -3.46573803E+00
 -1.01867477E+00  0.00000000E+00 -4.52970264E+00 -4.13162009E-01 -1.66758933E+00
 -3.33752517E+00 -3.08464721E+00  0.00000000E+00 -4.52949236E+00 -4.13272768E-01
  1.66794308E+00
Number of symbols in /Mol/                 I                2
MolSymbols                                 H   N=           2
HN      C3      
Redundant internal dimensions              I   N=           4
          45          11          18          16
Redundant internal coordinate indices      I   N=         180
           1           2           0           0           1           3
           0           0           1           9           0           0
           3           4           0           0           3           5
           0           0           5           6           0           0
           5           7           0           0           5           8
           0           0           9          10           0           0
           9          11           0           0           9          12
           0           0           2           1           3           0
           2           1           9           0           3           1
           9           0           1           3           4           0
           1           3           5           0           4           3
           5           0           3           5           6           0
           3           5           7           0           3           5
           8           0           6           5           7           0
           6           5           8           0           7           5
           8           0           1           9          10           0
           1           9          11           0           1           9
          12           0          10           9          11           0
          10           9          12           0          11           9
          12           0           2           1           3           4
           2           1           3           5           9           1
           3           4           9           1           3           5
           2           1           9          10           2           1
           9          11           2           1           9          12
           3           1           9          10           3           1
           9          11           3           1           9          12
           1           3           5           6           1           3
           5           7           1           3           5           8
           4           3           5           6           4           3
           5           7           4           3           5           8
Redundant internal coordinates             R   N=          45
  2.32265000E+00  2.57990288E+00  2.87388083E+00  1.90743240E+00  2.75207692E+00
  2.06964621E+00  2.06492735E+00  2.06935831E+00  2.06870021E+00  2.06994702E+00
  2.06884484E+00  2.12535957E+00  2.12937919E+00  2.02844653E+00  2.08308793E+00
  2.12190567E+00  2.07819126E+00  1.93296816E+00  1.89720428E+00  1.93277671E+00
  1.90734658E+00  1.88581232E+00  1.90751061E+00  1.89889404E+00  1.98637804E+00
  1.89880089E+00  1.90074746E+00  1.87527407E+00  1.90066038E+00  3.14090782E+00
  3.40930892E-04 -8.47223856E-04 -3.14141412E+00  1.01889252E+00  3.14159265E+00
 -1.01907201E+00 -2.12253733E+00  1.62800634E-04  2.12268344E+00  1.04790249E+00
 -3.13963440E+00 -1.04390090E+00 -2.09266720E+00  2.98120977E-03  2.09871471E+00
ZRed-IntVec                                I   N=          45
           0           0           0           0           0           0
           0           0           0           0           0           0
           0           0           0           0           0           0
           0           0           0           0           0           0
           0           0           0           0           0           0
           0           0           0           0           0           0
           0           0           0           0           0           0
           0           0           0
ZRed-FPVec                                 R   N=          45
  0.00000000E+00  0.00000000E+00  0.00000000E+00  0.00000000E+00  0.00000000E+00
  0.00000000E+00  0.00000000E+00  0.00000000E+00  0.00000000E+00  0.00000000E+00
  0.00000000E+00  0.00000000E+00  0.00000000E+00  0.00000000E+00  0.00000000E+00
  0.00000000E+00  0.00000000E+00  0.00000000E+00  0.00000000E+00  0.00000000E+00
  0.00000000E+00  0.00000000E+00  0.00000000E+00  0.00000000E+00  0.00000000E+00
  0.00000000E+00  0.00000000E+00  0.00000000E+00  0.00000000E+00  0.00000000E+00
  0.00000000E+00  0.00000000E+00  0.00000000E+00  0.00000000E+00  0.00000000E+00
  0.00000000E+00  0.00000000E+00  0.00000000E+00  0.00000000E+00  0.00000000E+00
  0.00000000E+00  0.00000000E+00  0.00000000E+00  0.00000000E+00  0.00000000E+00
ZRed-Constraint1                           R   N=          45
  2.32265000E+00  2.57990288E+00  2.87388083E+00  1.90743240E+00  2.75207692E+00
  2.06964621E+00  2.06492735E+00  2.06935831E+00  2.06870021E+00  2.06994702E+00
  2.06884484E+00  2.12535957E+00  2.12937919E+00  2.02844653E+00  2.08308793E+00
  2.12190567E+00  2.07819126E+00  1.93296816E+00  1.89720428E+00  1.93277671E+00
  1.90734658E+00  1.88581232E+00  1.90751061E+00  1.89889404E+00  1.98637804E+00
  1.89880089E+00  1.90074746E+00  1.87527407E+00  1.90066038E+00  3.14090782E+00
  3.40930892E-04 -8.47223856E-04 -3.14141412E+00  1.01889252E+00  3.14159265E+00
 -1.01907201E+00 -2.12253733E+00  1.62800634E-04  2.12268344E+00  1.04790249E+00
 -3.13963440E+00 -1.04390090E+00 -2.09266720E+00  2.98120977E-03  2.09871471E+00
ZRed-Constraint2                           R   N=          45
  0.00000000E+00  0.00000000E+00  0.00000000E+00  0.00000000E+00  0.00000000E+00
  0.00000000E+00  0.00000000E+00  0.00000000E+00  0.00000000E+00  0.00000000E+00
  0.00000000E+00  0.00000000E+00  0.00000000E+00  0.00000000E+00  0.00000000E+00
  0.00000000E+00  0.00000000E+00  0.00000000E+00  0.00000000E+00  0.00000000E+00
  0.00000000E+00  0.00000000E+00  0.00000000E+00  0.00000000E+00  0.00000000E+00
  0.00000000E+00  0.00000000E+00  0.00000000E+00  0.00000000E+00  0.00000000E+00
  0.00000000E+00  0.00000000E+00  0.00000000E+00  0.00000000E+00  0.00000000E+00
  0.00000000E+00  0.00000000E+00  0.00000000E+00  0.00000000E+00  0.00000000E+00
  0.00000000E+00  0.00000000E+00  0.00000000E+00  0.00000000E+00  0.00000000E+00
Force Field                                I                2
Atom Types                                 C   N=          12
#200C       #200O       #200N       #900HN      #900C3      
#200H1      #200H1      #200H1      #900C3      #200HC      
#200HC      #200HC      
Int Atom Types                             I   N=          12
    20001002    20001024    20001014    90000001    90000002    20001035
    20001035    20001035    90000002    20001034    20001034    20001034
MM charges                                 R   N=          12
  7.54205000E-01 -5.80972000E-01 -4.37191000E-01  3.08758000E-01 -4.30739000E-01
  1.74137000E-01  1.74137000E-01  1.74137000E-01 -6.41370000E-01  1.68299000E-01
  1.68299000E-01  1.68299000E-01
Integer atomic weights                     I   N=          12
          12          16          14           1          12           1
           1           1          12           1           1           1
Real atomic weights                        R   N=          12
  1.20000000E+01  1.59949146E+01  1.40030740E+01  1.00782504E+00  1.20000000E+01
  1.00782504E+00  1.00782504E+00  1.00782504E+00  1.20000000E+01  1.00782504E+00
  1.00782504E+00  1.00782504E+00
Atom fragment info                         I   N=          12
           0           0           0           0           0           0
           0           0           0           0           0           0
Atom residue num                           I   N=          12
           0           0           0           0           0           0
           0           0           0           0           0           0
Nuclear spins                              I   N=          12
           0           0           2           1           0           1
           1           1           0           1           1           1
Nuclear ZEff                               R   N=          12
 -3.90000000E+00 -6.00000000E+00 -4.90000000E+00 -1.00000000E+00 -3.90000000E+00
 -1.00000000E+00 -1.00000000E+00 -1.00000000E+00 -3.90000000E+00 -1.00000000E+00
 -1.00000000E+00 -1.00000000E+00
Nuclear ZNuc                               R   N=          12
  6.00000000E+00  8.00000000E+00  7.00000000E+00  1.00000000E+00  6.00000000E+00
  1.00000000E+00  1.00000000E+00  1.00000000E+00  6.00000000E+00  1.00000000E+00
  1.00000000E+00  1.00000000E+00
Nuclear QMom                               R   N=          12
  0.00000000E+00  0.00000000E+00  2.04400000E+00  0.00000000E+00  0.00000000E+00
  0.00000000E+00  0.00000000E+00  0.00000000E+00  0.00000000E+00  0.00000000E+00
  0.00000000E+00  0.00000000E+00
Nuclear GFac                               R   N=          12
  0.00000000E+00  0.00000000E+00  4.03761000E-01  2.79284600E+00  0.00000000E+00
  2.79284600E+00  2.79284600E+00  2.79284600E+00  0.00000000E+00  2.79284600E+00
  2.79284600E+00  2.79284600E+00
MicOpt                                     I   N=          12
          -1          -1          -1          -1          -1          -1
          -1          -1          -1          -1          -1          -1
Number of residues                         I                0
Number of secondary structures             I                0
Number of contracted shells                I               12
Number of primitive shells                 I               12
Pure/Cartesian d shells                    I                0
Pure/Cartesian f shells                    I                0
Highest angular momentum                   I                0
Largest degree of contraction              I                1
Shell types                                I   N=          12
           0           0           0           0           0           0
           0           0           0           0           0           0
Number of primitives per shell             I   N=          12
           1           1           1           1           1           1
           1           1           1           1           1           1
Shell to atom map                          I   N=          12
           1           2           3           4           5           6
           7           8           9          10          11          12
Primitive exponents                        R   N=          12
  1.00000000E+00  1.00000000E+00  1.00000000E+00  1.00000000E+00  1.00000000E+00
  1.00000000E+00  1.00000000E+00  1.00000000E+00  1.00000000E+00  1.00000000E+00
  1.00000000E+00  1.00000000E+00
Contraction coefficients                   R   N=          12
  1.00000000E+00  1.00000000E+00  1.00000000E+00  1.00000000E+00  1.00000000E+00
  1.00000000E+00  1.00000000E+00  1.00000000E+00  1.00000000E+00  1.00000000E+00
  1.00000000E+00  1.00000000E+00
Coordinates of each shell                  R   N=          36
 -9.13391851E-01  3.02203719E-01  0.00000000E+00 -7.25413530E-01  2.61723443E+00
  0.00000000E+00  1.16271998E+00 -1.22935052E+00 -3.76787960E-04  9.28142792E-01
 -3.12230339E+00  7.75632329E-04  3.71426725E+00 -1.98072786E-01  0.00000000E+00
  4.03189399E+00  9.72313860E-01  1.67712366E+00  5.06105438E+00 -1.76334318E+00
 -4.23937990E-03  4.02907315E+00  9.79255936E-01 -1.67243480E+00 -3.46573803E+00
 -1.01867477E+00  0.00000000E+00 -4.52970264E+00 -4.13162009E-01 -1.66758933E+00
 -3.33752517E+00 -3.08464721E+00  0.00000000E+00 -4.52949236E+00 -4.13272768E-01
  1.66794308E+00
Constraint Structure                       R   N=          36
 -9.13391851E-01  3.02203719E-01  0.00000000E+00 -7.25413530E-01  2.61723443E+00
  0.00000000E+00  1.16271998E+00 -1.22935052E+00 -3.76787960E-04  9.28142792E-01
 -3.12230339E+00  7.75632329E-04  3.71426725E+00 -1.98072786E-01  0.00000000E+00
  4.03189399E+00  9.72313860E-01  1.67712366E+00  5.06105438E+00 -1.76334318E+00
 -4.23937990E-03  4.02907315E+00  9.79255936E-01 -1.67243480E+00 -3.46573803E+00
 -1.01867477E+00  0.00000000E+00 -4.52970264E+00 -4.13162009E-01 -1.66758933E+00
 -3.33752517E+00 -3.08464721E+00  0.00000000E+00 -4.52949236E+00 -4.13272768E-01
  1.66794308E+00
Num ILSW                                   I              100
ILSW                                       I   N=         100
           0           0           0           0           0           0
           0           0           0           0           0          -1
           0           0           0           0           2           0
           0           0           0           0           1           0
           1           1           0           0           0           0
           0           0      100000           0          -1           0
           0           0           0           0           0           0
           0           0           0         104           0           0
           0           0           1           0           0           0
           0           0           4          41           0           0
           0           0           0           0           0           0
           0           0           0          12           0           0
           0           0           0           0           0           0
           0           0           0           0           0           0
           0           0           0           0           0           0
           0           0           0           0           0           0
           0           0           0           0
Num RLSW                                   I               41
RLSW                                       R   N=          41
  1.00000000E+00  1.00000000E+00  1.00000000E+00  1.00000000E+00  1.00000000E+00
  0.00000000E+00  0.00000000E+00  1.00000000E+00  0.00000000E+00  0.00000000E+00
  0.00000000E+00  0.00000000E+00  1.00000000E+00  0.00000000E+00  0.00000000E+00
  0.00000000E+00  0.00000000E+00  1.00000000E+00  0.00000000E+00  0.00000000E+00
  0.00000000E+00  0.00000000E+00  1.00000000E+00  0.00000000E+00  0.00000000E+00
  0.00000000E+00  0.00000000E+00  1.00000000E+00  0.00000000E+00  0.00000000E+00
  0.00000000E+00  0.00000000E+00  1.00000000E+00  0.00000000E+00  0.00000000E+00
  0.00000000E+00  0.00000000E+00  0.00000000E+00  1.00000000E+00  1.00000000E+00
  0.00000000E+00
MxBond                                     I                4
NBond                                      I   N=          12
           3           1           3           1           4           1
           1           1           4           1           1           1
IBond                                      I   N=          48
           2           3           9           0           1           0
           0           0           1           4           5           0
           3           0           0           0           3           6
           7           8           5           0           0           0
           5           0           0           0           5           0
           0           0           1          10          11          12
           9           0           0           0           9           0
           0           0           9           0           0           0
RBond                                      R   N=          48
  2.00000000E+00  1.00000000E+00  1.00000000E+00  0.00000000E+00  2.00000000E+00
  0.00000000E+00  0.00000000E+00  0.00000000E+00  1.00000000E+00  1.00000000E+00
  1.00000000E+00  0.00000000E+00  1.00000000E+00  0.00000000E+00  0.00000000E+00
  0.00000000E+00  1.00000000E+00  1.00000000E+00  1.00000000E+00  1.00000000E+00
  1.00000000E+00  0.00000000E+00  0.00000000E+00  0.00000000E+00  1.00000000E+00
  0.00000000E+00  0.00000000E+00  0.00000000E+00  1.00000000E+00  0.00000000E+00
  0.00000000E+00  0.00000000E+00  1.00000000E+00  1.00000000E+00  1.00000000E+00
  1.00000000E+00  1.00000000E+00  0.00000000E+00  0.00000000E+00  0.00000000E+00
  1.00000000E+00  0.00000000E+00  0.00000000E+00  0.00000000E+00  1.00000000E+00
  0.00000000E+00  0.00000000E+00  0.00000000E+00
Virial Ratio                               R      0.000000000000000E+00
SCF Energy                                 R     -7.847536015217403E-02
Total Energy                               R     -7.847536015217403E-02
RMS Force                                  R      4.480615849973705E-03
External E-field                           R   N=          35
  0.00000000E+00  0.00000000E+00  0.00000000E+00  0.00000000E+00  0.00000000E+00
  0.00000000E+00  0.00000000E+00  0.00000000E+00  0.00000000E+00  0.00000000E+00
  0.00000000E+00  0.00000000E+00  0.00000000E+00  0.00000000E+00  0.00000000E+00
  0.00000000E+00  0.00000000E+00  0.00000000E+00  0.00000000E+00  0.00000000E+00
  0.00000000E+00  0.00000000E+00  0.00000000E+00  0.00000000E+00  0.00000000E+00
  0.00000000E+00  0.00000000E+00  0.00000000E+00  0.00000000E+00  0.00000000E+00
  0.00000000E+00  0.00000000E+00  0.00000000E+00  0.00000000E+00  0.00000000E+00
IOpCl                                      I                0
IROHF                                      I                0
Grdnt Energy                               R     -7.847536015217403E-02
Grdnt NVar                                 I               45
Grdnt IGetFC                               I                4
Internal Forces                            R   N=          45
 -6.57253812E-03  2.94580963E-03 -1.12236593E-02 -2.04340598E-03  1.50724478E-02
  1.56230083E-03  1.96669949E-03  1.66863743E-03 -1.42422823E-03 -2.66839736E-03
 -1.47387436E-03  7.63031494E-03 -5.31645996E-03 -2.31385477E-03 -1.25300057E-02
  1.23576797E-02  1.72340909E-04 -1.31819999E-03  8.29898301E-03 -1.28502575E-03
 -2.65309674E-03 -5.30952943E-04 -2.67518764E-03  4.90217971E-04 -5.49770791E-03
  4.98994399E-04  1.65477306E-04  4.77033672E-03  1.67573208E-04  1.49479401E-05
 -1.88446275E-06  1.58094178E-05 -1.02298505E-06  3.12039316E-03 -2.05096344E-06
 -3.11403114E-03  3.11821916E-03 -4.22496339E-06 -3.11620514E-03 -1.18089897E-03
  7.36382803E-06  1.18742581E-03 -1.19037906E-03 -2.11626258E-06  1.17794572E-03
Internal Force Constants                   R   N=        1035
  7.75839894E-01  5.44396862E-03  4.47812549E-01 -6.07283143E-04  1.09296986E-03
  2.75403215E-01 -1.11833326E-03 -2.15880988E-03 -9.88007045E-04  4.72249671E-01
  4.34547203E-03  1.17825122E-02 -2.69622026E-05  1.29136309E-03  3.46813314E-01
 -4.22453905E-04  7.67013302E-04 -1.04498717E-04  3.71122549E-04  1.52766051E-03
  3.42690144E-01 -2.40419517E-04  5.17583632E-05 -1.32614300E-04  6.29892082E-04
  7.20393175E-04 -1.79717352E-15  3.41603456E-01 -4.23737748E-04  7.73295346E-04
 -1.04334971E-04  3.70820607E-04  1.53426237E-03 -1.34475764E-14  9.51495827E-16
  3.42691713E-01 -2.91372382E-04  3.54819421E-05 -1.91774157E-04  1.06980763E-04
 -3.86173199E-05  1.97876739E-05  2.90931842E-05  4.79074421E-05  3.42849039E-01
 -4.72834570E-04  7.37939279E-04  2.79191266E-04  6.70433312E-04 -2.86567880E-05
  6.47500641E-06  4.47744862E-05  6.37795279E-06  2.51205664E-14  3.41915173E-01
 -2.91365408E-04  3.54642448E-05 -1.91863462E-04  1.07028740E-04 -3.86177023E-05
  4.79262263E-05  2.90545059E-05  1.97937492E-05 -5.74736787E-14 -1.69417379E-14
  3.42848827E-01  6.86726045E-03  1.72948133E-02 -4.07386955E-03 -3.16442353E-04
  9.89663074E-03 -1.86924588E-04 -7.13534349E-04 -1.80230684E-04 -1.62317807E-04
 -1.72008229E-04 -1.62277167E-04  1.91227844E-01 -2.10170919E-03 -1.05244679E-02
 -3.49120060E-03  1.35194298E-03 -4.94707498E-03  1.57504798E-04  4.08213516E-04
  1.54355289E-04  1.04237699E-04 -9.59583278E-04  1.04124740E-04 -9.01869121E-02
  1.57140867E-01 -4.76555124E-03 -6.77034525E-03  7.56507019E-03 -1.03550063E-03
 -4.94955568E-03  2.93931454E-05  3.05320844E-04  2.59021310E-05  5.81014222E-05
  1.13159151E-03  5.81311072E-05 -1.01040933E-01 -6.69539552E-02  1.67994889E-01
 -5.75061685E-03 -1.22811829E-02  4.35737095E-04 -6.40156163E-06 -7.56579246E-03
 -8.11479805E-04 -1.15541298E-05 -8.19023365E-04  4.24757655E-04 -4.85497579E-05
  4.24741672E-04 -1.28101699E-02  6.91360082E-03  5.89656901E-03  9.57506708E-02
  1.00738317E-02  2.26720455E-02 -3.29197945E-04  5.67171467E-04  1.29261956E-02
  1.07648393E-03 -2.84167903E-04  1.09020628E-03 -2.28090056E-04  6.06982980E-05
 -2.28082306E-04  2.71621373E-02 -1.40948462E-02 -1.30672909E-02 -6.08939047E-02
  1.20244842E-01 -4.32321144E-03 -1.03908557E-02 -1.06539408E-04 -5.60769672E-04
 -5.36040010E-03 -2.64870075E-04  2.95722188E-04 -2.71316492E-04 -1.96646740E-04
 -1.21483941E-05 -1.96680405E-04 -1.43519590E-02  7.18124121E-03  7.17071772E-03
 -3.48567934E-02 -5.93509022E-02  9.42076922E-02 -3.02226186E-04  1.09404872E-03
 -2.18248860E-04  3.51644603E-04  1.92576705E-03  1.02478242E-03  1.30930793E-04
 -2.98455837E-05  7.21161420E-05  6.50443033E-05  1.67558330E-05 -3.10859349E-04
  1.83769079E-04  1.27147394E-04 -1.12871518E-03  2.89076440E-03 -1.76154165E-03
  1.30321916E-01 -3.71418692E-04 -2.20900236E-05  5.54061406E-05  1.88013957E-04
  8.17912814E-04 -3.31896859E-04 -7.59340906E-04 -3.34110057E-04  2.92451626E-05
 -6.29067365E-05  2.93462995E-05  4.91811295E-04 -1.45926384E-04 -3.45885064E-04
 -6.23259239E-04 -1.85764051E-03  2.48089898E-03 -2.46934541E-02  1.26481088E-01
 -2.97704638E-04  1.11666212E-03 -2.19188482E-04  3.51798248E-04  1.95359360E-03
 -2.85793575E-05  1.31157842E-04  1.03471524E-03  1.68808518E-05  6.53620535E-05
  7.21358896E-05 -2.94070092E-04  1.74877940E-04  1.19135307E-04 -1.15425608E-03
  2.94714428E-03 -1.79339560E-03 -2.67247755E-02 -2.46981106E-02  1.30356576E-01
  2.09102756E-04 -6.45852572E-04  1.38871198E-04 -2.97678467E-04 -1.59758060E-03
 -6.25042720E-04  2.48420150E-04 -1.99648812E-05 -3.92860992E-05 -2.62649148E-05
 -4.20227056E-05  2.54812950E-04 -1.69922531E-04 -8.48951998E-05  9.10769593E-04
 -1.03813880E-03  1.27320123E-04 -4.37330456E-02 -4.45006150E-02  9.09940111E-03
  5.93250037E-02  5.72129774E-04 -9.29528951E-04  1.12366096E-04 -3.15545799E-04
 -1.58975292E-03 -3.59809566E-05  1.48702186E-05 -3.82294988E-05 -3.94374212E-05
 -1.63888743E-05 -3.94869317E-05 -3.77709371E-04  1.14487950E-04  2.63221487E-04
  1.13182041E-03 -1.95044336E-03  8.18622645E-04 -4.55227258E-02  9.35661986E-03
 -4.55426174E-02  1.08414275E-02  6.11065518E-02  2.06916569E-04 -6.55590617E-04
  1.38966102E-04 -2.97072324E-04 -1.61012744E-03 -1.97704061E-05  2.48881250E-04
 -6.29284453E-04 -4.20696959E-05 -2.62297552E-05 -3.92812501E-05  2.44740624E-04
 -1.64759964E-04 -7.99760728E-05  9.23227625E-04 -1.05983668E-03  1.36659101E-04
  9.10280184E-03 -4.44887273E-02 -4.37524084E-02  1.10102854E-02  1.08465776E-02
  5.93304887E-02  2.41471085E-04 -1.09620931E-03 -1.40908794E-03  3.07705570E-04
  1.66709242E-05  3.37858723E-05  3.93394777E-05 -3.85697983E-05  1.48355074E-03
 -3.55547491E-05 -1.61435872E-04  1.27501330E-03  1.27169506E-03 -2.54674705E-03
 -5.00583903E-04  2.97375818E-04  2.03085943E-04 -3.68434637E-05 -7.31512625E-05
  1.85092564E-04 -3.05275459E-05 -1.20176429E-05 -3.42027879E-05  9.91850235E-02
 -7.23074508E-04  4.78382005E-03  7.18116260E-03 -3.01571379E-04 -1.24736695E-04
  8.99980260E-05  4.66256911E-05  9.01448621E-05 -3.43860526E-04  1.85524534E-04
 -3.43730236E-04 -6.59114493E-03 -5.79505853E-03  1.23862035E-02  2.72584038E-03
 -1.41202746E-03 -1.31381363E-03  3.69139971E-05  1.87995414E-04  3.64711429E-05
 -8.25023036E-05 -1.02027305E-04 -8.25097975E-05 -2.14635151E-02  1.10367585E-01
  2.41311964E-04 -1.09555037E-03 -1.40852754E-03  3.07415405E-04  1.66441316E-05
 -3.84196922E-05  3.94395684E-05  3.36399423E-05 -1.61488551E-04 -3.56938158E-05
  1.48334790E-03  1.27430082E-03  1.27114665E-03 -2.54540881E-03 -4.99601818E-04
  2.96835509E-04  2.02888836E-04  1.84870627E-04 -7.35265307E-05 -3.62214002E-05
 -3.42901419E-05 -1.18606784E-05 -3.06131432E-05 -1.38185318E-02 -2.14479072E-02
  9.91843688E-02  6.50000955E-05 -1.36740445E-03 -2.24122071E-03 -7.62111613E-05
  3.81518174E-05 -2.80966808E-05 -4.50668746E-05 -3.43095675E-05 -6.38795438E-04
 -5.97375716E-05 -1.81320608E-05  1.99137133E-03  1.95482085E-03 -3.94618246E-03
 -7.92663348E-04  3.76340093E-04  4.16255397E-04 -7.76163174E-05 -1.81438746E-05
 -4.81011978E-05  4.79068695E-05  4.14565866E-05  5.76802951E-05 -4.02545667E-02
 -3.97752686E-02  9.58018307E-03  5.61918531E-02  1.55898555E-04 -9.13166970E-05
 -2.38727472E-04 -1.56712487E-04  2.25871976E-05 -2.91332197E-05 -4.01982825E-05
 -2.91266788E-05 -3.26037282E-04 -3.58377877E-06 -3.25971455E-04  4.00194937E-04
 -4.10936161E-04  1.07411916E-05 -2.90534879E-04  1.42467080E-04  1.48067817E-04
 -6.55504223E-05 -1.50048897E-05 -6.56305017E-05  4.89457980E-05  5.13786684E-05
  4.89209261E-05 -3.45232909E-02  7.37803447E-03 -3.45307427E-02  6.90219813E-03
  5.10105401E-02  6.49711018E-05 -1.36690161E-03 -2.24058539E-03 -7.65618852E-05
  3.81578553E-05 -3.44048728E-05 -4.50205729E-05 -2.80475487E-05 -1.81433531E-05
 -5.99925397E-05 -6.38742679E-04  1.99062983E-03  1.95429492E-03 -3.94493448E-03
 -7.91945522E-04  3.76007430E-04  4.16006320E-04 -4.78599218E-05 -1.82540223E-05
 -7.77074272E-05  5.76647743E-05  4.14196457E-05  4.79198654E-05  9.58215515E-03
 -3.97656955E-02 -4.02544872E-02  9.64904745E-03  6.90060024E-03  5.61810026E-02
  4.50828334E-07  8.30276777E-08 -4.76078343E-07  1.63849995E-07 -8.27370504E-07
  3.72920355E-04  4.19125696E-08 -3.73914602E-04 -5.82843427E-05  2.87714393E-07
  5.79432776E-05  7.18563030E-06 -7.09501503E-06 -2.99707272E-07 -2.43730745E-05
 -2.97211207E-07  2.68639848E-05 -2.49696146E-04  1.92092772E-06  2.45506634E-04
  1.80470047E-05 -6.13511195E-07 -1.51108462E-05 -6.39716695E-05 -1.57709709E-06
  6.47522335E-05 -1.63104142E-04  1.86024395E-07  1.63828214E-04  8.44402341E-03
 -6.92036842E-07 -1.17276485E-06 -1.28382407E-07  2.33012657E-07 -8.50590809E-07
  2.19287649E-04 -3.12512113E-07 -2.20458596E-04 -8.21125464E-05  1.28647313E-07
  8.21906100E-05  6.48950097E-06 -6.77673241E-06  6.13622674E-08  2.53554762E-05
 -2.83409682E-06 -2.48504156E-05 -8.31014567E-04  1.32609020E-06  8.28826559E-04
  7.42655639E-05 -7.77103717E-07 -7.26402287E-05  7.60707670E-05 -3.94888819E-08
 -7.59488880E-05 -8.54697615E-05  8.53704323E-08  8.53112825E-05  5.92685978E-03
  8.59931405E-03  3.18558203E-07 -2.42889073E-07 -4.69921932E-07  2.61216798E-07
 -8.05886204E-07  1.90500097E-04  1.59136906E-07 -1.90839053E-04  8.76642827E-05
  2.44642826E-07 -8.80295034E-05 -8.92229542E-06  8.40453025E-06  7.96824120E-07
 -2.39989068E-05 -6.70236163E-07  2.69629556E-05  1.41460292E-04  8.53276463E-07
 -1.43694494E-04 -1.47068350E-05 -1.46597552E-07  1.62808137E-05 -3.28791596E-04
 -1.47985213E-06  3.29532555E-04 -9.64414357E-05 -7.56345403E-08  9.73681932E-05
  7.01234998E-03  4.38031151E-03  8.92309388E-03 -8.24306972E-07 -1.49868160E-06
 -1.22225995E-07  3.30379460E-07 -8.29106508E-07  3.68673906E-05 -1.95287776E-07
 -3.73830472E-05  6.38360790E-05  8.55757456E-08 -6.37821710E-05 -9.61842475E-06
  8.72281287E-06  1.15789366E-06  2.57296439E-05 -3.20712177E-06 -2.47514447E-05
 -4.39858129E-04  2.58438940E-07  4.39625431E-04  4.15117242E-05 -3.10190074E-07
 -4.12485689E-05 -1.88749160E-04  5.77560815E-08  1.88831434E-04 -1.88070553E-05
 -1.76288502E-07  1.88512616E-05  4.49518635E-03  7.05276578E-03  6.29105541E-03
  8.84863484E-03  2.26766492E-04 -6.59025874E-04 -9.21195707E-04  7.65485804E-05
  2.34381690E-05 -1.21645236E-04 -2.16642226E-06  8.45509984E-05  2.85638036E-04
 -2.17624440E-05  5.64523216E-05  9.49411162E-04  4.53211981E-04 -1.40236081E-03
 -4.50409639E-04  2.51044646E-04  1.99450588E-04  2.33850117E-04 -5.00614848E-05