gaussian.178559.boonlay-h00
 Entering Gaussian System, Link 0=g09
 Initial command:
 /usr/local/gaussian/g09/l1.exe /home/rwang013/scratch/gaussian.178559.boonlay-h00/Gau-7457.inp -scrdir=/home/rwang013/scratch/gaussian.178559.boonlay-h00/
 Entering Link 1 = /usr/local/gaussian/g09/l1.exe PID=      7458.
  
 Copyright (c) 1988,1990,1992,1993,1995,1998,2003,2009,2010,
            Gaussian, Inc.  All Rights Reserved.
  
 This is part of the Gaussian(R) 09 program.  It is based on
 the Gaussian(R) 03 system (copyright 2003, Gaussian, Inc.),
 the Gaussian(R) 98 system (copyright 1998, Gaussian, Inc.),
 the Gaussian(R) 94 system (copyright 1995, Gaussian, Inc.),
 the Gaussian 92(TM) system (copyright 1992, Gaussian, Inc.),
 the Gaussian 90(TM) system (copyright 1990, Gaussian, Inc.),
 the Gaussian 88(TM) system (copyright 1988, Gaussian, Inc.),
 the Gaussian 86(TM) system (copyright 1986, Carnegie Mellon
 University), and the Gaussian 82(TM) system (copyright 1983,
 Carnegie Mellon University). Gaussian is a federally registered
 trademark of Gaussian, Inc.
  
 This software contains proprietary and confidential information,
 including trade secrets, belonging to Gaussian, Inc.
  
 This software is provided under written license and may be
 used, copied, transmitted, or stored only in accord with that
 written license.
  
 The following legend is applicable only to US Government
 contracts under FAR:
  
                    RESTRICTED RIGHTS LEGEND
  
 Use, reproduction and disclosure by the US Government is
 subject to restrictions as set forth in subparagraphs (a)
 and (c) of the Commercial Computer Software - Restricted
 Rights clause in FAR 52.227-19.
  
 Gaussian, Inc.
 340 Quinnipiac St., Bldg. 40, Wallingford CT 06492
  
  
 ---------------------------------------------------------------
 Warning -- This program may not be used in any manner that
 competes with the business of Gaussian, Inc. or will provide
 assistance to any competitor of Gaussian, Inc.  The licensee
 of this program is prohibited from giving any competitor of
 Gaussian, Inc. access to this program.  By using this program,
 the user acknowledges that Gaussian, Inc. is engaged in the
 business of creating and licensing software in the field of
 computational chemistry and represents and warrants to the
 licensee that it is not a competitor of Gaussian, Inc. and that
 it will not use this program in any manner prohibited above.
 ---------------------------------------------------------------
  

 Cite this work as:
 Gaussian 09, Revision B.01,
 M. J. Frisch, G. W. Trucks, H. B. Schlegel, G. E. Scuseria, 
 M. A. Robb, J. R. Cheeseman, G. Scalmani, V. Barone, B. Mennucci, 
 G. A. Petersson, H. Nakatsuji, M. Caricato, X. Li, H. P. Hratchian, 
 A. F. Izmaylov, J. Bloino, G. Zheng, J. L. Sonnenberg, M. Hada, 
 M. Ehara, K. Toyota, R. Fukuda, J. Hasegawa, M. Ishida, T. Nakajima, 
 Y. Honda, O. Kitao, H. Nakai, T. Vreven, J. A. Montgomery, Jr., 
 J. E. Peralta, F. Ogliaro, M. Bearpark, J. J. Heyd, E. Brothers, 
 K. N. Kudin, V. N. Staroverov, T. Keith, R. Kobayashi, J. Normand, 
 K. Raghavachari, A. Rendell, J. C. Burant, S. S. Iyengar, J. Tomasi, 
 M. Cossi, N. Rega, J. M. Millam, M. Klene, J. E. Knox, J. B. Cross, 
 V. Bakken, C. Adamo, J. Jaramillo, R. Gomperts, R. E. Stratmann, 
 O. Yazyev, A. J. Austin, R. Cammi, C. Pomelli, J. W. Ochterski, 
 R. L. Martin, K. Morokuma, V. G. Zakrzewski, G. A. Voth, 
 P. Salvador, J. J. Dannenberg, S. Dapprich, A. D. Daniels, 
 O. Farkas, J. B. Foresman, J. V. Ortiz, J. Cioslowski, 
 and D. J. Fox, Gaussian, Inc., Wallingford CT, 2010.
 
 ******************************************
 Gaussian 09:  EM64L-G09RevB.01 12-Aug-2010
                30-Mar-2016 
 ******************************************
 %chk=/home/rwang013/scratch/gaussian.178559.boonlay-h00/bencom.chk
 %NProcShared=6
 Will use up to    6 processors via shared memory.
 %mem=12gb
 --------------------------------------------
 #p b3lyp/genecp nosymm geom=connectivity opt
 --------------------------------------------
 1/14=-1,18=20,19=15,26=3,38=1,57=2/1,3;
 2/9=110,12=2,15=1,17=6,18=5,40=1/2;
 3/5=7,11=2,16=1,17=8,25=1,30=1,71=1,74=-5/1,2,3;
 4//1;
 5/5=2,38=5/2;
 6/7=2,8=2,9=2,10=2,28=1/1;
 7/30=1/1,2,3,16;
 1/14=-1,18=20,19=15/3(2);
 2/9=110,15=1/2;
 99//99;
 2/9=110,15=1/2;
 3/5=7,6=1,11=2,16=1,17=8,25=1,30=1,71=1,74=-5,82=7/1,2,3;
 4/5=5,16=3/1;
 5/5=2,38=5/2;
 7/30=1/1,2,3,16;
 1/14=-1,18=20,19=15/3(-5);
 2/9=110,15=1/2;
 6/7=2,8=2,9=2,10=2,19=2,28=1/1;
 99/9=1/99;
 Leave Link    1 at Wed Mar 30 19:20:28 2016, MaxMem= 1610612736 cpu:       0.2
 (Enter /usr/local/gaussian/g09/l101.exe)
 ---------
 opt-title
 ---------
 Symbolic Z-matrix:
 Charge =  0 Multiplicity = 1
 C                    -0.19607   0.08395   0.00006 
 C                     1.20283   0.08388   0.00051 
 C                     1.90233   1.29533  -0.00005 
 C                     1.20295   2.50684  -0.00105 
 C                    -0.19594   2.50691  -0.00149 
 C                    -0.89545   1.29546  -0.00094 
 H                    -0.73975  -0.85763   0.00049 
 H                     1.74642  -0.85775   0.00128 
 H                     2.98961   1.29527   0.0003 
 H                     1.74663   3.44842  -0.00148 
 H                    -0.73954   3.44854  -0.00227 
 H                    -1.98273   1.29552  -0.00128 
 
 NAtoms=     12 NQM=     12 NQMF=      0 NMic=      0 NMicF=      0 NTot=     12.
                    Isotopes and Nuclear Properties:
 (Nuclear quadrupole moments (NQMom) in fm**2, nuclear magnetic moments (NMagM)
  in nuclear magnetons)

  Atom         1           2           3           4           5           6           7           8           9          10
 IAtWgt=          12          12          12          12          12          12           1           1           1           1
 AtmWgt=  12.0000000  12.0000000  12.0000000  12.0000000  12.0000000  12.0000000   1.0078250   1.0078250   1.0078250   1.0078250
 NucSpn=           0           0           0           0           0           0           1           1           1           1
 AtZEff=   0.0000000   0.0000000   0.0000000   0.0000000   0.0000000   0.0000000   0.0000000   0.0000000   0.0000000   0.0000000
 NQMom=    0.0000000   0.0000000   0.0000000   0.0000000   0.0000000   0.0000000   0.0000000   0.0000000   0.0000000   0.0000000
 NMagM=    0.0000000   0.0000000   0.0000000   0.0000000   0.0000000   0.0000000   2.7928460   2.7928460   2.7928460   2.7928460

  Atom        11          12
 IAtWgt=           1           1
 AtmWgt=   1.0078250   1.0078250
 NucSpn=           1           1
 AtZEff=   0.0000000   0.0000000
 NQMom=    0.0000000   0.0000000
 NMagM=    2.7928460   2.7928460
 Leave Link  101 at Wed Mar 30 19:20:28 2016, MaxMem= 1610612736 cpu:       0.5
 (Enter /usr/local/gaussian/g09/l103.exe)

 GradGradGradGradGradGradGradGradGradGradGradGradGradGradGradGradGradGrad
 Berny optimization.
 Initialization pass.
                           ----------------------------
                           !    Initial Parameters    !
                           ! (Angstroms and Degrees)  !
 --------------------------                            --------------------------
 ! Name  Definition              Value          Derivative Info.                !
 --------------------------------------------------------------------------------
 ! R1    R(1,2)                  1.3989         estimate D2E/DX2                !
 ! R2    R(1,6)                  1.3989         estimate D2E/DX2                !
 ! R3    R(1,7)                  1.0873         estimate D2E/DX2                !
 ! R4    R(2,3)                  1.3989         estimate D2E/DX2                !
 ! R5    R(2,8)                  1.0873         estimate D2E/DX2                !
 ! R6    R(3,4)                  1.3989         estimate D2E/DX2                !
 ! R7    R(3,9)                  1.0873         estimate D2E/DX2                !
 ! R8    R(4,5)                  1.3989         estimate D2E/DX2                !
 ! R9    R(4,10)                 1.0873         estimate D2E/DX2                !
 ! R10   R(5,6)                  1.3989         estimate D2E/DX2                !
 ! R11   R(5,11)                 1.0873         estimate D2E/DX2                !
 ! R12   R(6,12)                 1.0873         estimate D2E/DX2                !
 ! A1    A(2,1,6)              120.0            estimate D2E/DX2                !
 ! A2    A(2,1,7)              120.0            estimate D2E/DX2                !
 ! A3    A(6,1,7)              120.0            estimate D2E/DX2                !
 ! A4    A(1,2,3)              120.0            estimate D2E/DX2                !
 ! A5    A(1,2,8)              120.0001         estimate D2E/DX2                !
 ! A6    A(3,2,8)              119.9999         estimate D2E/DX2                !
 ! A7    A(2,3,4)              120.0            estimate D2E/DX2                !
 ! A8    A(2,3,9)              120.0            estimate D2E/DX2                !
 ! A9    A(4,3,9)              120.0            estimate D2E/DX2                !
 ! A10   A(3,4,5)              120.0            estimate D2E/DX2                !
 ! A11   A(3,4,10)             120.0            estimate D2E/DX2                !
 ! A12   A(5,4,10)             120.0            estimate D2E/DX2                !
 ! A13   A(4,5,6)              120.0            estimate D2E/DX2                !
 ! A14   A(4,5,11)             120.0001         estimate D2E/DX2                !
 ! A15   A(6,5,11)             119.9999         estimate D2E/DX2                !
 ! A16   A(1,6,5)              120.0            estimate D2E/DX2                !
 ! A17   A(1,6,12)             120.0            estimate D2E/DX2                !
 ! A18   A(5,6,12)             120.0            estimate D2E/DX2                !
 ! D1    D(6,1,2,3)              0.0            estimate D2E/DX2                !
 ! D2    D(6,1,2,8)           -180.0            estimate D2E/DX2                !
 ! D3    D(7,1,2,3)            180.0            estimate D2E/DX2                !
 ! D4    D(7,1,2,8)              0.0            estimate D2E/DX2                !
 ! D5    D(2,1,6,5)              0.0            estimate D2E/DX2                !
 ! D6    D(2,1,6,12)          -180.0            estimate D2E/DX2                !
 ! D7    D(7,1,6,5)           -180.0            estimate D2E/DX2                !
 ! D8    D(7,1,6,12)             0.0            estimate D2E/DX2                !
 ! D9    D(1,2,3,4)              0.0            estimate D2E/DX2                !
 ! D10   D(1,2,3,9)            180.0            estimate D2E/DX2                !
 ! D11   D(8,2,3,4)            180.0            estimate D2E/DX2                !
 ! D12   D(8,2,3,9)             -0.0001         estimate D2E/DX2                !
 ! D13   D(2,3,4,5)              0.0            estimate D2E/DX2                !
 ! D14   D(2,3,4,10)           180.0            estimate D2E/DX2                !
 ! D15   D(9,3,4,5)           -180.0            estimate D2E/DX2                !
 ! D16   D(9,3,4,10)             0.0            estimate D2E/DX2                !
 ! D17   D(3,4,5,6)              0.0            estimate D2E/DX2                !
 ! D18   D(3,4,5,11)           180.0            estimate D2E/DX2                !
 ! D19   D(10,4,5,6)          -180.0            estimate D2E/DX2                !
 ! D20   D(10,4,5,11)            0.0            estimate D2E/DX2                !
 ! D21   D(4,5,6,1)              0.0            estimate D2E/DX2                !
 ! D22   D(4,5,6,12)          -180.0            estimate D2E/DX2                !
 ! D23   D(11,5,6,1)          -179.9999         estimate D2E/DX2                !
 ! D24   D(11,5,6,12)            0.0            estimate D2E/DX2                !
 --------------------------------------------------------------------------------
 Trust Radius=3.00D-01 FncErr=1.00D-07 GrdErr=1.00D-06
 Number of steps in this run=     64 maximum allowed number of steps=    100.
 GradGradGradGradGradGradGradGradGradGradGradGradGradGradGradGradGradGrad

 Leave Link  103 at Wed Mar 30 19:20:28 2016, MaxMem= 1610612736 cpu:       0.1
 (Enter /usr/local/gaussian/g09/l202.exe)
                          Input orientation:                          
 ---------------------------------------------------------------------
 Center     Atomic      Atomic             Coordinates (Angstroms)
 Number     Number       Type             X           Y           Z
 ---------------------------------------------------------------------
      1          6           0       -0.196066    0.083955    0.000060
      2          6           0        1.202825    0.083884    0.000506
      3          6           0        1.902332    1.295325   -0.000047
      4          6           0        1.202947    2.506835   -0.001046
      5          6           0       -0.195944    2.506905   -0.001491
      6          6           0       -0.895451    1.295465   -0.000938
      7          1           0       -0.739751   -0.857626    0.000490
      8          1           0        1.746416   -0.857750    0.001281
      9          1           0        2.989607    1.295271    0.000299
     10          1           0        1.746632    3.448416   -0.001475
     11          1           0       -0.739536    3.448540   -0.002266
     12          1           0       -1.982726    1.295520   -0.001285
 ---------------------------------------------------------------------
                    Distance matrix (angstroms):
                    1          2          3          4          5
     1  C    0.000000
     2  C    1.398891   0.000000
     3  C    2.422951   1.398892   0.000000
     4  C    2.797783   2.422951   1.398891   0.000000
     5  C    2.422951   2.797783   2.422951   1.398891   0.000000
     6  C    1.398891   2.422951   2.797783   2.422951   1.398892
     7  H    1.087275   2.158714   3.408196   3.885058   3.408196
     8  H    2.158714   1.087275   2.158713   3.408196   3.885058
     9  H    3.408196   2.158714   1.087275   2.158714   3.408196
    10  H    3.885058   3.408196   2.158713   1.087275   2.158714
    11  H    3.408196   3.885058   3.408196   2.158715   1.087275
    12  H    2.158714   3.408196   3.885058   3.408196   2.158714
                    6          7          8          9         10
     6  C    0.000000
     7  H    2.158713   0.000000
     8  H    3.408196   2.486168   0.000000
     9  H    3.885058   4.306167   2.486166   0.000000
    10  H    3.408196   4.972334   4.306166   2.486166   0.000000
    11  H    2.158713   4.306166   4.972334   4.306168   2.486169
    12  H    1.087275   2.486167   4.306168   4.972333   4.306167
                   11         12
    11  H    0.000000
    12  H    2.486165   0.000000
 Symmetry turned off by external request.
 This structure is nearly, but not quite of a higher symmetry.
 Consider Symm=Loose if the higher symmetry is desired.
 Stoichiometry    C6H6
 Framework group  CI[X(C6H6)]
 Deg. of freedom    15
 Full point group                 CI      NOp   2
 Rotational constants (GHZ):      5.6697220      5.6697213      2.8348608
 Leave Link  202 at Wed Mar 30 19:20:29 2016, MaxMem= 1610612736 cpu:       0.0
 (Enter /usr/local/gaussian/g09/l301.exe)
 General basis read from cards:  (5D, 7F)
 Centers:   1  2  3  4  5  6  7  8  9 10 11 12
 6-31+g*
 ****
 Ernie: Thresh=  0.10000D-02 Tol=  0.10000D-05 Strict=F.
 ======================================================================================================
                                       Pseudopotential Parameters
 ======================================================================================================
  Center     Atomic      Valence      Angular      Power
  Number     Number     Electrons     Momentum     of R      Exponent        Coefficient   SO-Coeffient
 ======================================================================================================
    1          6
                                   No pseudopotential on this center.
    2          6
                                   No pseudopotential on this center.
    3          6
                                   No pseudopotential on this center.
    4          6
                                   No pseudopotential on this center.
    5          6
                                   No pseudopotential on this center.
    6          6
                                   No pseudopotential on this center.
    7          1
                                   No pseudopotential on this center.
    8          1
                                   No pseudopotential on this center.
    9          1
                                   No pseudopotential on this center.
   10          1
                                   No pseudopotential on this center.
   11          1
                                   No pseudopotential on this center.
   12          1
                                   No pseudopotential on this center.
 ======================================================================================================
 Integral buffers will be    131072 words long.
 Raffenetti 2 integral format.
 Two-electron integral symmetry is turned off.
   120 basis functions,   216 primitive gaussians,   126 cartesian basis functions
    21 alpha electrons       21 beta electrons
       nuclear repulsion energy       202.8986110856 Hartrees.
 IExCor=  402 DFT=T Ex+Corr=B3LYP ExCW=0 ScaHFX=  0.200000
 ScaDFX=  0.800000  0.720000  1.000000  0.810000 ScalE2=  1.000000  1.000000
 IRadAn=      0 IRanWt=     -1 IRanGd=            0 ICorTp=0
 NAtoms=   12 NActive=   12 NUniq=   12 SFac= 1.00D+00 NAtFMM=   50 NAOKFM=F Big=F
 Leave Link  301 at Wed Mar 30 19:20:29 2016, MaxMem= 1610612736 cpu:       0.4
 (Enter /usr/local/gaussian/g09/l302.exe)
 NPDir=0 NMtPBC=     1 NCelOv=     1 NCel=       1 NClECP=     1 NCelD=      1
         NCelK=      1 NCelE2=     1 NClLst=     1 CellRange=     0.0.
 One-electron integrals computed using PRISM.
   1 Symmetry operations used in ECPInt.
 ECPInt:  NShTT=     903 NPrTT=    4782 LenC2=     904 LenP2D=    3780.
 LDataN:  DoStor=T MaxTD1= 4 Len=   56
 NBasis=   120 RedAO= T  NBF=   120
 NBsUse=   120 1.00D-06 NBFU=   120
 Precomputing XC quadrature grid using
 IXCGrd= 2 IRadAn=           0 IRanWt=          -1 IRanGd=           0 AccXCQ= 0.00D+00.
 NRdTot=     768 NPtTot=       97284 NUsed=      102829 NTot=      102861
 NSgBfM=   126   126   126   126   126 NAtAll=    12    12.
 Leave Link  302 at Wed Mar 30 19:20:29 2016, MaxMem= 1610612736 cpu:       1.1
 (Enter /usr/local/gaussian/g09/l303.exe)
 DipDrv:  MaxL=1.
 Leave Link  303 at Wed Mar 30 19:20:29 2016, MaxMem= 1610612736 cpu:       0.2
 (Enter /usr/local/gaussian/g09/l401.exe)
 Harris functional with IExCor=  402 diagonalized for initial guess.
 ExpMin= 4.38D-02 ExpMax= 3.05D+03 ExpMxC= 4.57D+02 IAcc=2 IRadAn=         0 AccDes= 0.00D+00
 HarFok:  IExCor=  402 AccDes= 0.00D+00 IRadAn=         0 IDoV= 1
 ScaDFX=  1.000000  1.000000  1.000000  1.000000
 FoFCou: FMM=F IPFlag=           0 FMFlag=      100000 FMFlg1=           0
         NFxFlg=           0 DoJE=T BraDBF=F KetDBF=T FulRan=T
         Omega=  0.000000  0.000000  1.000000  0.000000  0.000000 ICntrl=     500 IOpCl=  0
         NMat0=    1 NMatS0=    1 NMatT0=    0 NMatD0=    1 NMtDS0=    0 NMtDT0=    0
         I1Cent=           4 NGrid=           0.
 Symmetry not used in FoFCou.
 Harris En= -232.257581556468    
 Leave Link  401 at Wed Mar 30 19:20:29 2016, MaxMem= 1610612736 cpu:       2.6
 (Enter /usr/local/gaussian/g09/l502.exe)
 Closed shell SCF:
 Requested convergence on RMS density matrix=1.00D-08 within 128 cycles.
 Requested convergence on MAX density matrix=1.00D-06.
 Requested convergence on             energy=1.00D-06.
 No special actions if energy rises.
 Using DIIS extrapolation, IDIIS=  1040.
 Two-electron integral symmetry not used.
       102708 words used for storage of precomputed grid.
 Keep R1 ints in memory in canonical form, NReq=33206161.
 IEnd=      170018 IEndB=      170018 NGot=  1610612736 MDV=  1578463332
 LenX=  1578463332 LenY=  1578447015
 Symmetry not used in FoFDir.
 MinBra= 0 MaxBra= 2 Meth= 1.
 IRaf=       0 NMat=   1 IRICut=       1 DoRegI=T DoRafI=F ISym2E= 0 JSym2E=0.

 Cycle   1  Pass 1  IDiag  1:
 E= -232.114463840957    
 DIIS: error= 3.63D-02 at cycle   1 NSaved=   1.
 NSaved= 1 IEnMin= 1 EnMin= -232.114463840957     IErMin= 1 ErrMin= 3.63D-02
 ErrMax= 3.63D-02 EMaxC= 1.00D-01 BMatC= 1.11D-01 BMatP= 1.11D-01
 IDIUse=3 WtCom= 6.37D-01 WtEn= 3.63D-01
 Coeff-Com:  0.100D+01
 Coeff-En:   0.100D+01
 Coeff:      0.100D+01
 Gap=     0.244 Goal=   None    Shift=    0.000
 GapD=    0.244 DampG=1.000 DampE=0.500 DampFc=0.5000 IDamp=-1.
 Damping current iteration by 5.00D-01
 RMSDP=1.08D-02 MaxDP=1.45D-01              OVMax= 1.77D-01

 Cycle   2  Pass 1  IDiag  1:
 E= -232.175133888463     Delta-E=       -0.060670047505 Rises=F Damp=T
 DIIS: error= 8.47D-03 at cycle   2 NSaved=   2.
 NSaved= 2 IEnMin= 2 EnMin= -232.175133888463     IErMin= 2 ErrMin= 8.47D-03
 ErrMax= 8.47D-03 EMaxC= 1.00D-01 BMatC= 5.10D-03 BMatP= 1.11D-01
 IDIUse=3 WtCom= 9.15D-01 WtEn= 8.47D-02
 Coeff-Com:  0.651D-01 0.935D+00
 Coeff-En:   0.114D+00 0.886D+00
 Coeff:      0.692D-01 0.931D+00
 Gap=     0.268 Goal=   None    Shift=    0.000
 RMSDP=3.63D-03 MaxDP=7.52D-02 DE=-6.07D-02 OVMax= 9.73D-02

 Cycle   3  Pass 1  IDiag  1:
 E= -232.253491005210     Delta-E=       -0.078357116747 Rises=F Damp=F
 DIIS: error= 4.58D-03 at cycle   3 NSaved=   3.
 NSaved= 3 IEnMin= 3 EnMin= -232.253491005210     IErMin= 3 ErrMin= 4.58D-03
 ErrMax= 4.58D-03 EMaxC= 1.00D-01 BMatC= 9.68D-04 BMatP= 5.10D-03
 IDIUse=3 WtCom= 9.54D-01 WtEn= 4.58D-02
 Coeff-Com: -0.225D-01 0.264D+00 0.758D+00
 Coeff-En:   0.000D+00 0.000D+00 0.100D+01
 Coeff:     -0.214D-01 0.252D+00 0.769D+00
 Gap=     0.242 Goal=   None    Shift=    0.000
 RMSDP=1.01D-03 MaxDP=1.43D-02 DE=-7.84D-02 OVMax= 7.02D-03

 Cycle   4  Pass 1  IDiag  1:
 E= -232.254388372401     Delta-E=       -0.000897367191 Rises=F Damp=F
 DIIS: error= 4.43D-04 at cycle   4 NSaved=   4.
 NSaved= 4 IEnMin= 4 EnMin= -232.254388372401     IErMin= 4 ErrMin= 4.43D-04
 ErrMax= 4.43D-04 EMaxC= 1.00D-01 BMatC= 1.63D-05 BMatP= 9.68D-04
 IDIUse=3 WtCom= 9.96D-01 WtEn= 4.43D-03
 Coeff-Com: -0.930D-02 0.158D-01 0.135D+00 0.859D+00
 Coeff-En:   0.000D+00 0.000D+00 0.000D+00 0.100D+01
 Coeff:     -0.926D-02 0.157D-01 0.134D+00 0.860D+00
 Gap=     0.243 Goal=   None    Shift=    0.000
 RMSDP=1.10D-04 MaxDP=1.49D-03 DE=-8.97D-04 OVMax= 8.66D-04

 Cycle   5  Pass 1  IDiag  1:
 E= -232.254405500913     Delta-E=       -0.000017128512 Rises=F Damp=F
 DIIS: error= 1.93D-05 at cycle   5 NSaved=   5.
 NSaved= 5 IEnMin= 5 EnMin= -232.254405500913     IErMin= 5 ErrMin= 1.93D-05
 ErrMax= 1.93D-05 EMaxC= 1.00D-01 BMatC= 3.20D-08 BMatP= 1.63D-05
 IDIUse=1 WtCom= 1.00D+00 WtEn= 0.00D+00
 Coeff-Com: -0.451D-03-0.114D-02 0.317D-02 0.632D-01 0.935D+00
 Coeff:     -0.451D-03-0.114D-02 0.317D-02 0.632D-01 0.935D+00
 Gap=     0.243 Goal=   None    Shift=    0.000
 RMSDP=1.12D-05 MaxDP=1.72D-04 DE=-1.71D-05 OVMax= 3.72D-05

 Cycle   6  Pass 1  IDiag  1:
 E= -232.254405533342     Delta-E=       -0.000000032429 Rises=F Damp=F
 DIIS: error= 1.29D-06 at cycle   6 NSaved=   6.
 NSaved= 6 IEnMin= 6 EnMin= -232.254405533342     IErMin= 6 ErrMin= 1.29D-06
 ErrMax= 1.29D-06 EMaxC= 1.00D-01 BMatC= 1.36D-10 BMatP= 3.20D-08
 IDIUse=1 WtCom= 1.00D+00 WtEn= 0.00D+00
 Coeff-Com:  0.337D-04-0.277D-04-0.474D-03-0.208D-02-0.130D-01 0.102D+01
 Coeff:      0.337D-04-0.277D-04-0.474D-03-0.208D-02-0.130D-01 0.102D+01
 Gap=     0.243 Goal=   None    Shift=    0.000
 RMSDP=4.65D-07 MaxDP=5.76D-06 DE=-3.24D-08 OVMax= 7.27D-06

 Cycle   7  Pass 1  IDiag  1:
 E= -232.254405533394     Delta-E=       -0.000000000051 Rises=F Damp=F
 DIIS: error= 1.46D-06 at cycle   7 NSaved=   7.
 NSaved= 7 IEnMin= 7 EnMin= -232.254405533394     IErMin= 6 ErrMin= 1.29D-06
 ErrMax= 1.46D-06 EMaxC= 1.00D-01 BMatC= 1.43D-10 BMatP= 1.36D-10
 IDIUse=1 WtCom= 1.00D+00 WtEn= 0.00D+00
 Coeff-Com:  0.223D-04-0.975D-06-0.304D-03-0.187D-02-0.180D-01 0.566D+00
 Coeff-Com:  0.454D+00
 Coeff:      0.223D-04-0.975D-06-0.304D-03-0.187D-02-0.180D-01 0.566D+00
 Coeff:      0.454D+00
 Gap=     0.243 Goal=   None    Shift=    0.000
 RMSDP=1.08D-07 MaxDP=2.14D-06 DE=-5.14D-11 OVMax= 4.39D-06

 Cycle   8  Pass 1  IDiag  1:
 E= -232.254405533532     Delta-E=       -0.000000000139 Rises=F Damp=F
 DIIS: error= 1.47D-07 at cycle   8 NSaved=   8.
 NSaved= 8 IEnMin= 8 EnMin= -232.254405533532     IErMin= 8 ErrMin= 1.47D-07
 ErrMax= 1.47D-07 EMaxC= 1.00D-01 BMatC= 2.10D-12 BMatP= 1.36D-10
 IDIUse=1 WtCom= 1.00D+00 WtEn= 0.00D+00
 Coeff-Com: -0.487D-06 0.262D-05-0.237D-04-0.167D-03-0.176D-02 0.226D-01
 Coeff-Com:  0.103D+00 0.876D+00
 Coeff:     -0.487D-06 0.262D-05-0.237D-04-0.167D-03-0.176D-02 0.226D-01
 Coeff:      0.103D+00 0.876D+00
 Gap=     0.243 Goal=   None    Shift=    0.000
 RMSDP=2.40D-08 MaxDP=2.51D-07 DE=-1.39D-10 OVMax= 4.10D-07

 Cycle   9  Pass 1  IDiag  1:
 E= -232.254405533535     Delta-E=       -0.000000000003 Rises=F Damp=F
 DIIS: error= 3.63D-09 at cycle   9 NSaved=   9.
 NSaved= 9 IEnMin= 9 EnMin= -232.254405533535     IErMin= 9 ErrMin= 3.63D-09
 ErrMax= 3.63D-09 EMaxC= 1.00D-01 BMatC= 1.55D-15 BMatP= 2.10D-12
 IDIUse=1 WtCom= 1.00D+00 WtEn= 0.00D+00
 Coeff-Com: -0.106D-06 0.117D-06 0.136D-05 0.275D-05 0.425D-04-0.231D-02
 Coeff-Com: -0.315D-02-0.129D-01 0.102D+01
 Coeff:     -0.106D-06 0.117D-06 0.136D-05 0.275D-05 0.425D-04-0.231D-02
 Coeff:     -0.315D-02-0.129D-01 0.102D+01
 Gap=     0.243 Goal=   None    Shift=    0.000
 RMSDP=1.47D-09 MaxDP=1.72D-08 DE=-2.90D-12 OVMax= 3.62D-08

 SCF Done:  E(RB3LYP) =  -232.254405534     A.U. after    9 cycles
             Convg  =    0.1467D-08             -V/T =  2.0070
 KE= 2.306346104788D+02 PE=-9.434945757996D+02 EE= 2.777069487016D+02
 Leave Link  502 at Wed Mar 30 19:20:34 2016, MaxMem= 1610612736 cpu:      24.5
 (Enter /usr/local/gaussian/g09/l601.exe)
 Copying SCF densities to generalized density rwf, IOpCl= 0 IROHF=0.

 **********************************************************************

            Population analysis using the SCF density.

 **********************************************************************

 Alpha  occ. eigenvalues --  -10.19309 -10.19288 -10.19287 -10.19240 -10.19240
 Alpha  occ. eigenvalues --  -10.19219  -0.85639  -0.74963  -0.74963  -0.60681
 Alpha  occ. eigenvalues --   -0.60681  -0.52728  -0.46772  -0.44843  -0.42655
 Alpha  occ. eigenvalues --   -0.42655  -0.36913  -0.34973  -0.34973  -0.25702
 Alpha  occ. eigenvalues --   -0.25701
 Alpha virt. eigenvalues --   -0.01449  -0.01448   0.00896   0.02622   0.02623
 Alpha virt. eigenvalues --    0.04595   0.04595   0.06679   0.07803   0.07987
 Alpha virt. eigenvalues --    0.09213   0.09237   0.09978   0.12668   0.14267
 Alpha virt. eigenvalues --    0.14280   0.14483   0.14487   0.15523   0.15554
 Alpha virt. eigenvalues --    0.19611   0.19679   0.19680   0.20502   0.21182
 Alpha virt. eigenvalues --    0.21198   0.23532   0.24380   0.24382   0.26630
 Alpha virt. eigenvalues --    0.27903   0.27910   0.32468   0.34765   0.34765
 Alpha virt. eigenvalues --    0.34900   0.34901   0.56520   0.57573   0.60097
 Alpha virt. eigenvalues --    0.62048   0.65930   0.71752   0.71753   0.72207
 Alpha virt. eigenvalues --    0.72212   0.74683   0.74684   0.77109   0.77115
 Alpha virt. eigenvalues --    0.80349   0.83236   0.89853   0.93169   0.93170
 Alpha virt. eigenvalues --    0.96447   0.96447   0.97524   1.03414   1.07948
 Alpha virt. eigenvalues --    1.07957   1.13611   1.13612   1.17407   1.17408
 Alpha virt. eigenvalues --    1.25073   1.31058   1.39147   1.43447   1.43449
 Alpha virt. eigenvalues --    1.47780   1.47781   1.50488   1.50488   1.75430
 Alpha virt. eigenvalues --    1.81528   1.88340   1.91067   1.98764   1.98764
 Alpha virt. eigenvalues --    2.10399   2.10399   2.14952   2.14952   2.16183
 Alpha virt. eigenvalues --    2.16183   2.30031   2.30031   2.31904   2.57116
 Alpha virt. eigenvalues --    2.57116   2.64155   2.70047   2.70048   2.73159
 Alpha virt. eigenvalues --    2.73159   2.82719   3.01740   3.39578
          Condensed to atoms (all electrons):
              1          2          3          4          5          6
     1  C    5.022693   0.526073  -0.101208   0.011603  -0.101360   0.525961
     2  C    0.526073   5.022693   0.525961  -0.101360   0.011603  -0.101208
     3  C   -0.101208   0.525961   5.023167   0.525961  -0.101208   0.011527
     4  C    0.011603  -0.101360   0.525961   5.022693   0.526073  -0.101208
     5  C   -0.101360   0.011603  -0.101208   0.526073   5.022693   0.525961
     6  C    0.525961  -0.101208   0.011527  -0.101208   0.525961   5.023167
     7  H    0.281722  -0.002793   0.013079  -0.009387   0.013083  -0.002802
     8  H   -0.002793   0.281722  -0.002803   0.013083  -0.009387   0.013079
     9  H    0.013082  -0.002839   0.281803  -0.002839   0.013082  -0.009388
    10  H   -0.009387   0.013083  -0.002802   0.281722  -0.002793   0.013079
    11  H    0.013083  -0.009387   0.013079  -0.002793   0.281722  -0.002803
    12  H   -0.002839   0.013082  -0.009388   0.013082  -0.002839   0.281803
              7          8          9         10         11         12
     1  C    0.281722  -0.002793   0.013082  -0.009387   0.013083  -0.002839
     2  C   -0.002793   0.281722  -0.002839   0.013083  -0.009387   0.013082
     3  C    0.013079  -0.002803   0.281803  -0.002802   0.013079  -0.009388
     4  C   -0.009387   0.013083  -0.002839   0.281722  -0.002793   0.013082
     5  C    0.013083  -0.009387   0.013082  -0.002793   0.281722  -0.002839
     6  C   -0.002802   0.013079  -0.009388   0.013079  -0.002803   0.281803
     7  H    0.541126  -0.005268  -0.000154   0.000015  -0.000154  -0.005267
     8  H   -0.005268   0.541126  -0.005267  -0.000154   0.000015  -0.000154
     9  H   -0.000154  -0.005267   0.541105  -0.005267  -0.000154   0.000015
    10  H    0.000015  -0.000154  -0.005267   0.541126  -0.005268  -0.000154
    11  H   -0.000154   0.000015  -0.000154  -0.005268   0.541126  -0.005267
    12  H   -0.005267  -0.000154   0.000015  -0.000154  -0.005267   0.541105
 Mulliken atomic charges:
              1
     1  C   -0.176630
     2  C   -0.176629
     3  C   -0.177166
     4  C   -0.176630
     5  C   -0.176630
     6  C   -0.177166
     7  H    0.176801
     8  H    0.176801
     9  H    0.176823
    10  H    0.176801
    11  H    0.176801
    12  H    0.176823
 Sum of Mulliken atomic charges =   0.00000
 Mulliken charges with hydrogens summed into heavy atoms:
              1
     1  C    0.000171
     2  C    0.000172
     3  C   -0.000343
     4  C    0.000171
     5  C    0.000172
     6  C   -0.000343
 Sum of Mulliken charges with hydrogens summed into heavy atoms =   0.00000
 Electronic spatial extent (au):  <R**2>=            751.6383
 Charge=              0.0000 electrons
 Dipole moment (field-independent basis, Debye):
    X=              0.0000    Y=              0.0000    Z=              0.0000  Tot=              0.0000
 Quadrupole moment (field-independent basis, Debye-Ang):
   XX=            -32.1973   YY=            -32.1978   ZZ=            -40.4238
   XY=              0.0000   XZ=              0.0026   YZ=             -0.0053
 Traceless Quadrupole moment (field-independent basis, Debye-Ang):
   XX=              2.7423   YY=              2.7418   ZZ=             -5.4842
   XY=              0.0000   XZ=              0.0026   YZ=             -0.0053
 Octapole moment (field-independent basis, Debye-Ang**2):
  XXX=            -48.6282  YYY=           -125.1265  ZZZ=              0.0597  XYY=            -16.2097
  XXY=            -41.7082  XXZ=              0.0185  XZZ=            -20.3510  YZZ=            -52.3648
  YYZ=              0.0022  XYZ=              0.0007
 Hexadecapole moment (field-independent basis, Debye-Ang**3):
 XXXX=           -329.8984 YYYY=           -605.1198 ZZZZ=            -52.2255 XXXY=            -62.9928
 XXXZ=             -0.0001 YYYX=            -62.9938 YYYZ=              0.0874 ZZZX=             -0.0167
 ZZZY=              0.1715 XXYY=           -155.8349 XXZZ=            -76.6558 YYZZ=           -134.2458
 XXYZ=              0.0401 YYXZ=             -0.0032 ZZXY=            -26.3625
 N-N= 2.028986110856D+02 E-N=-9.434945754184D+02  KE= 2.306346104788D+02
 No NMR shielding tensors so no spin-rotation constants.
 Leave Link  601 at Wed Mar 30 19:20:34 2016, MaxMem= 1610612736 cpu:       0.8
 (Enter /usr/local/gaussian/g09/l701.exe)
 Compute integral first derivatives.
 ... and contract with generalized density number  0.
   1 Symmetry operations used in ECPInt.
 ECPInt:  NShTT=     903 NPrTT=    4782 LenC2=     904 LenP2D=    3780.
 LDataN:  DoStor=T MaxTD1= 5 Len=  102
 Leave Link  701 at Wed Mar 30 19:20:34 2016, MaxMem= 1610612736 cpu:       0.9
 (Enter /usr/local/gaussian/g09/l702.exe)
 L702 exits ... SP integral derivatives will be done elsewhere.
 Leave Link  702 at Wed Mar 30 19:20:34 2016, MaxMem= 1610612736 cpu:       0.2
 (Enter /usr/local/gaussian/g09/l703.exe)
 Compute integral first derivatives, UseDBF=F ICtDFT=           0.
 Integral derivatives from FoFDir, PRISM(SPDF).
 Calling FoFJK, ICntrl=      2127 FMM=F ISym2X=0 I1Cent= 0 IOpClX= 0 NMat=1 NMatS=1 NMatT=0.
 FoFCou: FMM=F IPFlag=           0 FMFlag=      100000 FMFlg1=         800
         NFxFlg=           0 DoJE=F BraDBF=F KetDBF=F FulRan=T
         Omega=  0.000000  0.000000  1.000000  0.000000  0.000000 ICntrl=    2127 IOpCl=  0
         NMat0=    1 NMatS0=    1 NMatT0=    0 NMatD0=    1 NMtDS0=    0 NMtDT0=    0
         I1Cent=           0 NGrid=           0.
 Symmetry not used in FoFCou.
 Leave Link  703 at Wed Mar 30 19:20:35 2016, MaxMem= 1610612736 cpu:       7.8
 (Enter /usr/local/gaussian/g09/l716.exe)
 Dipole        = 2.87431939D-07-2.37632332D-08 1.31940123D-07
 -------------------------------------------------------------------
 Center     Atomic                   Forces (Hartrees/Bohr)
 Number     Number              X              Y              Z
 -------------------------------------------------------------------
      1        6           0.000020781    0.000015490   -0.000000381
      2        6          -0.000020654    0.000016033   -0.000000359
      3        6           0.000004588   -0.000000244    0.000000022
      4        6          -0.000020781   -0.000015493    0.000000385
      5        6           0.000020650   -0.000016040    0.000000318
      6        6          -0.000004591    0.000000256    0.000000031
      7        1          -0.000003641   -0.000001105    0.000000090
      8        1           0.000003586   -0.000001171    0.000000172
      9        1           0.000002392    0.000000010   -0.000000101
     10        1           0.000003614    0.000001125   -0.000000096
     11        1          -0.000003549    0.000001191   -0.000000169
     12        1          -0.000002396   -0.000000053    0.000000089
 -------------------------------------------------------------------
 Cartesian Forces:  Max     0.000020781 RMS     0.000008854
 Leave Link  716 at Wed Mar 30 19:20:35 2016, MaxMem= 1610612736 cpu:       0.2
 (Enter /usr/local/gaussian/g09/l103.exe)

 GradGradGradGradGradGradGradGradGradGradGradGradGradGradGradGradGradGrad
 Berny optimization.
 Internal  Forces:  Max     0.000013637 RMS     0.000005249
 Search for a local minimum.
 Step number   1 out of a maximum of   64
 All quantities printed in internal units (Hartrees-Bohrs-Radians)
 RMS Force = .52485D-05 SwitMx=.10000D-02 MixMth= 2
 Mixed Optimization -- En-DIIS/RFO-DIIS
 Second derivative matrix not updated -- first step.
 ITU=  0
     Eigenvalues ---    0.02103   0.02103   0.02103   0.02103   0.02103
     Eigenvalues ---    0.02103   0.02103   0.02103   0.02103   0.16000
     Eigenvalues ---    0.16000   0.16000   0.16000   0.16000   0.16000
     Eigenvalues ---    0.22000   0.22000   0.22000   0.35129   0.35129
     Eigenvalues ---    0.35129   0.35129   0.35129   0.35129   0.41598
     Eigenvalues ---    0.41598   0.45805   0.45805   0.45805   0.45805
 RFO step:  Lambda= 0.00000000D+00 EMin= 2.10341793D-02
 Linear search not attempted -- first point.
 Iteration  1 RMS(Cart)=  0.00002253 RMS(Int)=  0.00000000
 Iteration  2 RMS(Cart)=  0.00000000 RMS(Int)=  0.00000000
 Variable       Old X    -DE/DX   Delta X   Delta X   Delta X     New X
                                 (Linear)    (Quad)   (Total)
    R1        2.64352  -0.00001   0.00000  -0.00003  -0.00003   2.64349
    R2        2.64352  -0.00001   0.00000  -0.00002  -0.00002   2.64350
    R3        2.05465   0.00000   0.00000   0.00001   0.00001   2.05466
    R4        2.64352  -0.00001   0.00000  -0.00002  -0.00002   2.64350
    R5        2.05465   0.00000   0.00000   0.00001   0.00001   2.05466
    R6        2.64352  -0.00001   0.00000  -0.00002  -0.00002   2.64350
    R7        2.05465   0.00000   0.00000   0.00001   0.00001   2.05466
    R8        2.64352  -0.00001   0.00000  -0.00003  -0.00003   2.64349
    R9        2.05465   0.00000   0.00000   0.00001   0.00001   2.05466
   R10        2.64352  -0.00001   0.00000  -0.00002  -0.00002   2.64350
   R11        2.05465   0.00000   0.00000   0.00001   0.00001   2.05466
   R12        2.05465   0.00000   0.00000   0.00001   0.00001   2.05466
    A1        2.09440   0.00001   0.00000   0.00002   0.00002   2.09442
    A2        2.09440   0.00000   0.00000   0.00000   0.00000   2.09440
    A3        2.09439  -0.00001   0.00000  -0.00003  -0.00003   2.09437
    A4        2.09439   0.00001   0.00000   0.00003   0.00003   2.09442
    A5        2.09440   0.00000   0.00000   0.00000   0.00000   2.09440
    A6        2.09439  -0.00001   0.00000  -0.00003  -0.00003   2.09437
    A7        2.09440  -0.00001   0.00000  -0.00005  -0.00005   2.09435
    A8        2.09440   0.00001   0.00000   0.00002   0.00002   2.09442
    A9        2.09440   0.00001   0.00000   0.00002   0.00002   2.09442
   A10        2.09440   0.00001   0.00000   0.00002   0.00002   2.09442
   A11        2.09439  -0.00001   0.00000  -0.00003  -0.00003   2.09437
   A12        2.09440   0.00000   0.00000   0.00000   0.00000   2.09440
   A13        2.09439   0.00001   0.00000   0.00003   0.00003   2.09442
   A14        2.09440   0.00000   0.00000   0.00000   0.00000   2.09440
   A15        2.09439  -0.00001   0.00000  -0.00003  -0.00003   2.09437
   A16        2.09440  -0.00001   0.00000  -0.00005  -0.00005   2.09435
   A17        2.09440   0.00001   0.00000   0.00002   0.00002   2.09442
   A18        2.09439   0.00001   0.00000   0.00003   0.00003   2.09442
    D1        0.00000   0.00000   0.00000   0.00000   0.00000   0.00000
    D2       -3.14159   0.00000   0.00000  -0.00001  -0.00001   3.14159
    D3        3.14159   0.00000   0.00000   0.00000   0.00000  -3.14159
    D4        0.00000   0.00000   0.00000   0.00000   0.00000   0.00000
    D5        0.00000   0.00000   0.00000   0.00000   0.00000   0.00000
    D6       -3.14159   0.00000   0.00000   0.00000   0.00000  -3.14159
    D7       -3.14159   0.00000   0.00000   0.00000   0.00000   3.14159
    D8        0.00000   0.00000   0.00000   0.00000   0.00000   0.00000
    D9        0.00000   0.00000   0.00000   0.00000   0.00000   0.00000
   D10        3.14159   0.00000   0.00000   0.00000   0.00000  -3.14159
   D11        3.14159   0.00000   0.00000   0.00001   0.00001  -3.14159
   D12        0.00000   0.00000   0.00000   0.00001   0.00001   0.00001
   D13        0.00000   0.00000   0.00000   0.00000   0.00000   0.00000
   D14        3.14159   0.00000   0.00000   0.00000   0.00000  -3.14159
   D15       -3.14159   0.00000   0.00000   0.00000   0.00000   3.14159
   D16        0.00000   0.00000   0.00000   0.00000   0.00000   0.00000
   D17        0.00000   0.00000   0.00000   0.00000   0.00000   0.00000
   D18        3.14159   0.00000   0.00000   0.00001   0.00001  -3.14159
   D19       -3.14159   0.00000   0.00000   0.00000   0.00000   3.14159
   D20        0.00000   0.00000   0.00000   0.00000   0.00000   0.00000
   D21        0.00000   0.00000   0.00000   0.00000   0.00000   0.00000
   D22       -3.14159   0.00000   0.00000   0.00000   0.00000   3.14159
   D23       -3.14159   0.00000   0.00000  -0.00001  -0.00001   3.14159
   D24        0.00000   0.00000   0.00000  -0.00001  -0.00001  -0.00001
         Item               Value     Threshold  Converged?
 Maximum Force            0.000014     0.000450     YES
 RMS     Force            0.000005     0.000300     YES
 Maximum Displacement     0.000054     0.001800     YES
 RMS     Displacement     0.000023     0.001200     YES
 Predicted change in Energy=-2.393034D-09
 Optimization completed.
    -- Stationary point found.
                           ----------------------------
                           !   Optimized Parameters   !
                           ! (Angstroms and Degrees)  !
 --------------------------                            --------------------------
 ! Name  Definition              Value          Derivative Info.                !
 --------------------------------------------------------------------------------
 ! R1    R(1,2)                  1.3989         -DE/DX =    0.0                 !
 ! R2    R(1,6)                  1.3989         -DE/DX =    0.0                 !
 ! R3    R(1,7)                  1.0873         -DE/DX =    0.0                 !
 ! R4    R(2,3)                  1.3989         -DE/DX =    0.0                 !
 ! R5    R(2,8)                  1.0873         -DE/DX =    0.0                 !
 ! R6    R(3,4)                  1.3989         -DE/DX =    0.0                 !
 ! R7    R(3,9)                  1.0873         -DE/DX =    0.0                 !
 ! R8    R(4,5)                  1.3989         -DE/DX =    0.0                 !
 ! R9    R(4,10)                 1.0873         -DE/DX =    0.0                 !
 ! R10   R(5,6)                  1.3989         -DE/DX =    0.0                 !
 ! R11   R(5,11)                 1.0873         -DE/DX =    0.0                 !
 ! R12   R(6,12)                 1.0873         -DE/DX =    0.0                 !
 ! A1    A(2,1,6)              120.0            -DE/DX =    0.0                 !
 ! A2    A(2,1,7)              120.0            -DE/DX =    0.0                 !
 ! A3    A(6,1,7)              120.0            -DE/DX =    0.0                 !
 ! A4    A(1,2,3)              120.0            -DE/DX =    0.0                 !
 ! A5    A(1,2,8)              120.0001         -DE/DX =    0.0                 !
 ! A6    A(3,2,8)              119.9999         -DE/DX =    0.0                 !
 ! A7    A(2,3,4)              120.0            -DE/DX =    0.0                 !
 ! A8    A(2,3,9)              120.0            -DE/DX =    0.0                 !
 ! A9    A(4,3,9)              120.0            -DE/DX =    0.0                 !
 ! A10   A(3,4,5)              120.0            -DE/DX =    0.0                 !
 ! A11   A(3,4,10)             120.0            -DE/DX =    0.0                 !
 ! A12   A(5,4,10)             120.0            -DE/DX =    0.0                 !
 ! A13   A(4,5,6)              120.0            -DE/DX =    0.0                 !
 ! A14   A(4,5,11)             120.0001         -DE/DX =    0.0                 !
 ! A15   A(6,5,11)             119.9999         -DE/DX =    0.0                 !
 ! A16   A(1,6,5)              120.0            -DE/DX =    0.0                 !
 ! A17   A(1,6,12)             120.0            -DE/DX =    0.0                 !
 ! A18   A(5,6,12)             120.0            -DE/DX =    0.0                 !
 ! D1    D(6,1,2,3)              0.0            -DE/DX =    0.0                 !
 ! D2    D(6,1,2,8)            180.0            -DE/DX =    0.0                 !
 ! D3    D(7,1,2,3)           -180.0            -DE/DX =    0.0                 !
 ! D4    D(7,1,2,8)              0.0            -DE/DX =    0.0                 !
 ! D5    D(2,1,6,5)              0.0            -DE/DX =    0.0                 !
 ! D6    D(2,1,6,12)          -180.0            -DE/DX =    0.0                 !
 ! D7    D(7,1,6,5)            180.0            -DE/DX =    0.0                 !
 ! D8    D(7,1,6,12)             0.0            -DE/DX =    0.0                 !
 ! D9    D(1,2,3,4)              0.0            -DE/DX =    0.0                 !
 ! D10   D(1,2,3,9)           -180.0            -DE/DX =    0.0                 !
 ! D11   D(8,2,3,4)           -180.0            -DE/DX =    0.0                 !
 ! D12   D(8,2,3,9)             -0.0001         -DE/DX =    0.0                 !
 ! D13   D(2,3,4,5)              0.0            -DE/DX =    0.0                 !
 ! D14   D(2,3,4,10)          -180.0            -DE/DX =    0.0                 !
 ! D15   D(9,3,4,5)            180.0            -DE/DX =    0.0                 !
 ! D16   D(9,3,4,10)             0.0            -DE/DX =    0.0                 !
 ! D17   D(3,4,5,6)              0.0            -DE/DX =    0.0                 !
 ! D18   D(3,4,5,11)          -180.0            -DE/DX =    0.0                 !
 ! D19   D(10,4,5,6)           180.0            -DE/DX =    0.0                 !
 ! D20   D(10,4,5,11)            0.0            -DE/DX =    0.0                 !
 ! D21   D(4,5,6,1)              0.0            -DE/DX =    0.0                 !
 ! D22   D(4,5,6,12)           180.0            -DE/DX =    0.0                 !
 ! D23   D(11,5,6,1)           180.0001         -DE/DX =    0.0                 !
 ! D24   D(11,5,6,12)            0.0            -DE/DX =    0.0                 !
 --------------------------------------------------------------------------------
 GradGradGradGradGradGradGradGradGradGradGradGradGradGradGradGradGradGrad

 Largest change from initial coordinates is atom    0       0.000 Angstoms.
 Leave Link  103 at Wed Mar 30 19:20:35 2016, MaxMem= 1610612736 cpu:       0.1
 (Enter /usr/local/gaussian/g09/l202.exe)
                          Input orientation:                          
 ---------------------------------------------------------------------
 Center     Atomic      Atomic             Coordinates (Angstroms)
 Number     Number       Type             X           Y           Z
 ---------------------------------------------------------------------
      1          6           0       -0.196066    0.083955    0.000060
      2          6           0        1.202825    0.083884    0.000506
      3          6           0        1.902332    1.295325   -0.000047
      4          6           0        1.202947    2.506835   -0.001046
      5          6           0       -0.195944    2.506905   -0.001491
      6          6           0       -0.895451    1.295465   -0.000938
      7          1           0       -0.739751   -0.857626    0.000490
      8          1           0        1.746416   -0.857750    0.001281
      9          1           0        2.989607    1.295271    0.000299
     10          1           0        1.746632    3.448416   -0.001475
     11          1           0       -0.739536    3.448540   -0.002266
     12          1           0       -1.982726    1.295520   -0.001285
 ---------------------------------------------------------------------
                    Distance matrix (angstroms):
                    1          2          3          4          5
     1  C    0.000000
     2  C    1.398891   0.000000
     3  C    2.422951   1.398892   0.000000
     4  C    2.797783   2.422951   1.398891   0.000000
     5  C    2.422951   2.797783   2.422951   1.398891   0.000000
     6  C    1.398891   2.422951   2.797783   2.422951   1.398892
     7  H    1.087275   2.158714   3.408196   3.885058   3.408196
     8  H    2.158714   1.087275   2.158713   3.408196   3.885058
     9  H    3.408196   2.158714   1.087275   2.158714   3.408196
    10  H    3.885058   3.408196   2.158713   1.087275   2.158714
    11  H    3.408196   3.885058   3.408196   2.158715   1.087275
    12  H    2.158714   3.408196   3.885058   3.408196   2.158714
                    6          7          8          9         10
     6  C    0.000000
     7  H    2.158713   0.000000
     8  H    3.408196   2.486168   0.000000
     9  H    3.885058   4.306167   2.486166   0.000000
    10  H    3.408196   4.972334   4.306166   2.486166   0.000000
    11  H    2.158713   4.306166   4.972334   4.306168   2.486169
    12  H    1.087275   2.486167   4.306168   4.972333   4.306167
                   11         12
    11  H    0.000000
    12  H    2.486165   0.000000
 Symmetry turned off by external request.
 Stoichiometry    C6H6
 Framework group  C1[X(C6H6)]
 Deg. of freedom    30
 Full point group                 C1      NOp   1
 Rotational constants (GHZ):      5.6697220      5.6697213      2.8348608
 Leave Link  202 at Wed Mar 30 19:20:35 2016, MaxMem= 1610612736 cpu:       0.0
 (Enter /usr/local/gaussian/g09/l9999.exe)
 1\1\GINC-BOONLAY-C09\FOpt\RB3LYP\GenECP\C6H6\RWANG013\30-Mar-2016\0\\#
 p b3lyp/genecp nosymm geom=connectivity opt\\opt-title\\0,1\C,-0.19606
 60323,0.0839546103,0.0000603594\C,1.2028250763,0.083884471,0.000506018
 9\C,1.902331654,1.2953250354,-0.0000471364\C,1.2029467077,2.506835148,
 -0.0010455962\C,-0.1959444094,2.5069053169,-0.0014910918\C,-0.89545099
 72,1.2954647382,-0.0009382991\H,-0.7397513458,-0.8576259342,0.00048998
 71\H,1.7464164212,-0.8577500156,0.0012814516\H,2.9896068228,1.29527062
 54,0.0002992971\H,1.7466322779,3.4484155332,-0.0014750375\H,-0.7395361
 242,3.4485395988,-0.0022663791\H,-1.9827261712,1.295519561,-0.00128457
 39\\Version=EM64L-G09RevB.01\HF=-232.2544055\RMSD=1.467e-09\RMSF=8.854
 e-06\Dipole=0.0000003,0.,0.0000001\Quadrupole=2.0388614,2.0384882,-4.0
 773495,-0.0000008,0.0019476,-0.0039195\PG=C01 [X(C6H6)]\\@



 WE LOSE BECAUSE WE WIN

 GAMBLERS,

 RECOLLECTING WHICH,

 TOSS THEIR DICE AGAIN....


                          EMILY DICKINSON  BOLTS OF MELODY NO. 533
 Job cpu time:  0 days  0 hours  0 minutes 40.1 seconds.
 File lengths (MBytes):  RWF=     15 Int=      0 D2E=      0 Chk=      2 Scr=      1
 Normal termination of Gaussian 09 at Wed Mar 30 19:20:36 2016.
