opt-title                                                               
FOpt      RB3LYP                                                      GenECP              
Number of atoms                            I               12
Info1-9                                    I   N=           9
          40          40           0           0           0         100
           2          18        -502
Charge                                     I                0
Multiplicity                               I                1
Number of electrons                        I               42
Number of alpha electrons                  I               21
Number of beta electrons                   I               21
Number of basis functions                  I              120
Number of independent functions            I              120
Number of point charges in /Mol/           I                0
Number of translation vectors              I                0
Atomic numbers                             I   N=          12
           6           6           6           6           6           6
           1           1           1           1           1           1
Nuclear charges                            R   N=          12
  6.00000000E+00  6.00000000E+00  6.00000000E+00  6.00000000E+00  6.00000000E+00
  6.00000000E+00  1.00000000E+00  1.00000000E+00  1.00000000E+00  1.00000000E+00
  1.00000000E+00  1.00000000E+00
Current cartesian coordinates              R   N=          36
 -3.70511105E-01  1.58651221E-01  1.14062675E-04  2.27300998E+00  1.58518677E-01
  9.56237079E-04  3.59488584E+00  2.44780957E+00 -8.90749171E-05  2.27323983E+00
  4.73723189E+00 -1.97589054E-03 -3.70281271E-01  4.73736449E+00 -2.81775510E-03
 -1.69215715E+00  2.44807357E+00 -1.77312836E-03 -1.39792745E+00 -1.62067814E+00
  9.25941358E-04  3.30024875E+00 -1.62091262E+00  2.42159262E-03  5.64953814E+00
  2.44770675E+00  5.65589563E-04  3.30065666E+00  6.51656095E+00 -2.78741686E-03
 -1.39752074E+00  6.51679540E+00 -4.28283590E-03 -3.74680946E+00  2.44817717E+00
 -2.42749278E-03
Force Field                                I                0
Int Atom Types                             I   N=          12
           0           0           0           0           0           0
           0           0           0           0           0           0
MM charges                                 R   N=          12
  0.00000000E+00  0.00000000E+00  0.00000000E+00  0.00000000E+00  0.00000000E+00
  0.00000000E+00  0.00000000E+00  0.00000000E+00  0.00000000E+00  0.00000000E+00
  0.00000000E+00  0.00000000E+00
Integer atomic weights                     I   N=          12
          12          12          12          12          12          12
           1           1           1           1           1           1
Real atomic weights                        R   N=          12
  1.20000000E+01  1.20000000E+01  1.20000000E+01  1.20000000E+01  1.20000000E+01
  1.20000000E+01  1.00782504E+00  1.00782504E+00  1.00782504E+00  1.00782504E+00
  1.00782504E+00  1.00782504E+00
Atom fragment info                         I   N=          12
           0           0           0           0           0           0
           0           0           0           0           0           0
Atom residue num                           I   N=          12
           0           0           0           0           0           0
           0           0           0           0           0           0
Nuclear spins                              I   N=          12
           0           0           0           0           0           0
           1           1           1           1           1           1
Nuclear ZEff                               R   N=          12
 -3.60000000E+00 -3.60000000E+00 -3.60000000E+00 -3.60000000E+00 -3.60000000E+00
 -3.60000000E+00 -1.00000000E+00 -1.00000000E+00 -1.00000000E+00 -1.00000000E+00
 -1.00000000E+00 -1.00000000E+00
Nuclear QMom                               R   N=          12
  0.00000000E+00  0.00000000E+00  0.00000000E+00  0.00000000E+00  0.00000000E+00
  0.00000000E+00  0.00000000E+00  0.00000000E+00  0.00000000E+00  0.00000000E+00
  0.00000000E+00  0.00000000E+00
Nuclear GFac                               R   N=          12
  0.00000000E+00  0.00000000E+00  0.00000000E+00  0.00000000E+00  0.00000000E+00
  0.00000000E+00  2.79284600E+00  2.79284600E+00  2.79284600E+00  2.79284600E+00
  2.79284600E+00  2.79284600E+00
MicOpt                                     I   N=          12
          -1          -1          -1          -1          -1          -1
          -1          -1          -1          -1          -1          -1
Number of contracted shells                I               42
Number of primitive shells                 I               96
Pure/Cartesian d shells                    I                0
Pure/Cartesian f shells                    I                0
Highest angular momentum                   I                2
Largest degree of contraction              I                6
Shell types                                I   N=          42
           0          -1          -1          -1          -2           0
          -1          -1          -1          -2           0          -1
          -1          -1          -2           0          -1          -1
          -1          -2           0          -1          -1          -1
          -2           0          -1          -1          -1          -2
           0           0           0           0           0           0
           0           0           0           0           0           0
Number of primitives per shell             I   N=          42
           6           3           1           1           1           6
           3           1           1           1           6           3
           1           1           1           6           3           1
           1           1           6           3           1           1
           1           6           3           1           1           1
           3           1           3           1           3           1
           3           1           3           1           3           1
Shell to atom map                          I   N=          42
           1           1           1           1           1           2
           2           2           2           2           3           3
           3           3           3           4           4           4
           4           4           5           5           5           5
           5           6           6           6           6           6
           7           7           8           8           9           9
          10          10          11          11          12          12
Primitive exponents                        R   N=          96
  3.04752488E+03  4.57369518E+02  1.03948685E+02  2.92101553E+01  9.28666296E+00
  3.16392696E+00  7.86827235E+00  1.88128854E+00  5.44249258E-01  1.68714478E-01
  4.38000000E-02  8.00000000E-01  3.04752488E+03  4.57369518E+02  1.03948685E+02
  2.92101553E+01  9.28666296E+00  3.16392696E+00  7.86827235E+00  1.88128854E+00
  5.44249258E-01  1.68714478E-01  4.38000000E-02  8.00000000E-01  3.04752488E+03
  4.57369518E+02  1.03948685E+02  2.92101553E+01  9.28666296E+00  3.16392696E+00
  7.86827235E+00  1.88128854E+00  5.44249258E-01  1.68714478E-01  4.38000000E-02
  8.00000000E-01  3.04752488E+03  4.57369518E+02  1.03948685E+02  2.92101553E+01
  9.28666296E+00  3.16392696E+00  7.86827235E+00  1.88128854E+00  5.44249258E-01
  1.68714478E-01  4.38000000E-02  8.00000000E-01  3.04752488E+03  4.57369518E+02
  1.03948685E+02  2.92101553E+01  9.28666296E+00  3.16392696E+00  7.86827235E+00
  1.88128854E+00  5.44249258E-01  1.68714478E-01  4.38000000E-02  8.00000000E-01
  3.04752488E+03  4.57369518E+02  1.03948685E+02  2.92101553E+01  9.28666296E+00
  3.16392696E+00  7.86827235E+00  1.88128854E+00  5.44249258E-01  1.68714478E-01
  4.38000000E-02  8.00000000E-01  1.87311370E+01  2.82539436E+00  6.40121692E-01
  1.61277759E-01  1.87311370E+01  2.82539436E+00  6.40121692E-01  1.61277759E-01
  1.87311370E+01  2.82539436E+00  6.40121692E-01  1.61277759E-01  1.87311370E+01
  2.82539436E+00  6.40121692E-01  1.61277759E-01  1.87311370E+01  2.82539436E+00
  6.40121692E-01  1.61277759E-01  1.87311370E+01  2.82539436E+00  6.40121692E-01
  1.61277759E-01
Contraction coefficients                   R   N=          96
  1.83473713E-03  1.40373228E-02  6.88426223E-02  2.32184443E-01  4.67941348E-01
  3.62311985E-01 -1.19332420E-01 -1.60854152E-01  1.14345644E+00  1.00000000E+00
  1.00000000E+00  1.00000000E+00  1.83473713E-03  1.40373228E-02  6.88426223E-02
  2.32184443E-01  4.67941348E-01  3.62311985E-01 -1.19332420E-01 -1.60854152E-01
  1.14345644E+00  1.00000000E+00  1.00000000E+00  1.00000000E+00  1.83473713E-03
  1.40373228E-02  6.88426223E-02  2.32184443E-01  4.67941348E-01  3.62311985E-01
 -1.19332420E-01 -1.60854152E-01  1.14345644E+00  1.00000000E+00  1.00000000E+00
  1.00000000E+00  1.83473713E-03  1.40373228E-02  6.88426223E-02  2.32184443E-01
  4.67941348E-01  3.62311985E-01 -1.19332420E-01 -1.60854152E-01  1.14345644E+00
  1.00000000E+00  1.00000000E+00  1.00000000E+00  1.83473713E-03  1.40373228E-02
  6.88426223E-02  2.32184443E-01  4.67941348E-01  3.62311985E-01 -1.19332420E-01
 -1.60854152E-01  1.14345644E+00  1.00000000E+00  1.00000000E+00  1.00000000E+00
  1.83473713E-03  1.40373228E-02  6.88426223E-02  2.32184443E-01  4.67941348E-01
  3.62311985E-01 -1.19332420E-01 -1.60854152E-01  1.14345644E+00  1.00000000E+00
  1.00000000E+00  1.00000000E+00  3.34946043E-02  2.34726953E-01  8.13757326E-01
  1.00000000E+00  3.34946043E-02  2.34726953E-01  8.13757326E-01  1.00000000E+00
  3.34946043E-02  2.34726953E-01  8.13757326E-01  1.00000000E+00  3.34946043E-02
  2.34726953E-01  8.13757326E-01  1.00000000E+00  3.34946043E-02  2.34726953E-01
  8.13757326E-01  1.00000000E+00  3.34946043E-02  2.34726953E-01  8.13757326E-01
  1.00000000E+00
P(S=P) Contraction coefficients            R   N=          96
  0.00000000E+00  0.00000000E+00  0.00000000E+00  0.00000000E+00  0.00000000E+00
  0.00000000E+00  6.89990666E-02  3.16423961E-01  7.44308291E-01  1.00000000E+00
  1.00000000E+00  0.00000000E+00  0.00000000E+00  0.00000000E+00  0.00000000E+00
  0.00000000E+00  0.00000000E+00  0.00000000E+00  6.89990666E-02  3.16423961E-01
  7.44308291E-01  1.00000000E+00  1.00000000E+00  0.00000000E+00  0.00000000E+00
  0.00000000E+00  0.00000000E+00  0.00000000E+00  0.00000000E+00  0.00000000E+00
  6.89990666E-02  3.16423961E-01  7.44308291E-01  1.00000000E+00  1.00000000E+00
  0.00000000E+00  0.00000000E+00  0.00000000E+00  0.00000000E+00  0.00000000E+00
  0.00000000E+00  0.00000000E+00  6.89990666E-02  3.16423961E-01  7.44308291E-01
  1.00000000E+00  1.00000000E+00  0.00000000E+00  0.00000000E+00  0.00000000E+00
  0.00000000E+00  0.00000000E+00  0.00000000E+00  0.00000000E+00  6.89990666E-02
  3.16423961E-01  7.44308291E-01  1.00000000E+00  1.00000000E+00  0.00000000E+00
  0.00000000E+00  0.00000000E+00  0.00000000E+00  0.00000000E+00  0.00000000E+00
  0.00000000E+00  6.89990666E-02  3.16423961E-01  7.44308291E-01  1.00000000E+00
  1.00000000E+00  0.00000000E+00  0.00000000E+00  0.00000000E+00  0.00000000E+00
  0.00000000E+00  0.00000000E+00  0.00000000E+00  0.00000000E+00  0.00000000E+00
  0.00000000E+00  0.00000000E+00  0.00000000E+00  0.00000000E+00  0.00000000E+00
  0.00000000E+00  0.00000000E+00  0.00000000E+00  0.00000000E+00  0.00000000E+00
  0.00000000E+00  0.00000000E+00  0.00000000E+00  0.00000000E+00  0.00000000E+00
  0.00000000E+00
Coordinates of each shell                  R   N=         126
 -3.70511105E-01  1.58651221E-01  1.14062675E-04 -3.70511105E-01  1.58651221E-01
  1.14062675E-04 -3.70511105E-01  1.58651221E-01  1.14062675E-04 -3.70511105E-01
  1.58651221E-01  1.14062675E-04 -3.70511105E-01  1.58651221E-01  1.14062675E-04
  2.27300998E+00  1.58518677E-01  9.56237079E-04  2.27300998E+00  1.58518677E-01
  9.56237079E-04  2.27300998E+00  1.58518677E-01  9.56237079E-04  2.27300998E+00
  1.58518677E-01  9.56237079E-04  2.27300998E+00  1.58518677E-01  9.56237079E-04
  3.59488584E+00  2.44780957E+00 -8.90749171E-05  3.59488584E+00  2.44780957E+00
 -8.90749171E-05  3.59488584E+00  2.44780957E+00 -8.90749171E-05  3.59488584E+00
  2.44780957E+00 -8.90749171E-05  3.59488584E+00  2.44780957E+00 -8.90749171E-05
  2.27323983E+00  4.73723189E+00 -1.97589054E-03  2.27323983E+00  4.73723189E+00
 -1.97589054E-03  2.27323983E+00  4.73723189E+00 -1.97589054E-03  2.27323983E+00
  4.73723189E+00 -1.97589054E-03  2.27323983E+00  4.73723189E+00 -1.97589054E-03
 -3.70281271E-01  4.73736449E+00 -2.81775510E-03 -3.70281271E-01  4.73736449E+00
 -2.81775510E-03 -3.70281271E-01  4.73736449E+00 -2.81775510E-03 -3.70281271E-01
  4.73736449E+00 -2.81775510E-03 -3.70281271E-01  4.73736449E+00 -2.81775510E-03
 -1.69215715E+00  2.44807357E+00 -1.77312836E-03 -1.69215715E+00  2.44807357E+00
 -1.77312836E-03 -1.69215715E+00  2.44807357E+00 -1.77312836E-03 -1.69215715E+00
  2.44807357E+00 -1.77312836E-03 -1.69215715E+00  2.44807357E+00 -1.77312836E-03
 -1.39792745E+00 -1.62067814E+00  9.25941358E-04 -1.39792745E+00 -1.62067814E+00
  9.25941358E-04  3.30024875E+00 -1.62091262E+00  2.42159262E-03  3.30024875E+00
 -1.62091262E+00  2.42159262E-03  5.64953814E+00  2.44770675E+00  5.65589563E-04
  5.64953814E+00  2.44770675E+00  5.65589563E-04  3.30065666E+00  6.51656095E+00
 -2.78741686E-03  3.30065666E+00  6.51656095E+00 -2.78741686E-03 -1.39752074E+00
  6.51679540E+00 -4.28283590E-03 -1.39752074E+00  6.51679540E+00 -4.28283590E-03
 -3.74680946E+00  2.44817717E+00 -2.42749278E-03 -3.74680946E+00  2.44817717E+00
 -2.42749278E-03
Constraint Structure                       R   N=          36
 -3.70511105E-01  1.58651221E-01  1.14062675E-04  2.27300998E+00  1.58518677E-01
  9.56237079E-04  3.59488584E+00  2.44780957E+00 -8.90749171E-05  2.27323983E+00
  4.73723189E+00 -1.97589054E-03 -3.70281271E-01  4.73736449E+00 -2.81775510E-03
 -1.69215715E+00  2.44807357E+00 -1.77312836E-03 -1.39792745E+00 -1.62067814E+00
  9.25941358E-04  3.30024875E+00 -1.62091262E+00  2.42159262E-03  5.64953814E+00
  2.44770675E+00  5.65589563E-04  3.30065666E+00  6.51656095E+00 -2.78741686E-03
 -1.39752074E+00  6.51679540E+00 -4.28283590E-03 -3.74680946E+00  2.44817717E+00
 -2.42749278E-03
Num ILSW                                   I              100
ILSW                                       I   N=         100
           0           0           0           0           2           0
           0           0           0           0         402          -1
           0           0           0           0           0           0
           0           0           0           0           1           0
           1           1           0           0           0           0
           0           0      100000           0          -1           0
           0           0           0           0           0           0
           0           0           0           1           0           0
           0           0           1           0           0           0
           0           0           4          40           0           0
           0           0           5           0           0           0
           0           0           0           0           0           0
           0           0           0           0           0           0
           0           0           0           0           0           0
           0           0           0           0           0           0
           0           0           0           0           0           0
           0           0           0           0
Num RLSW                                   I               40
RLSW                                       R   N=          40
  8.00000000E-01  7.20000000E-01  1.00000000E+00  8.10000000E-01  2.00000000E-01
  0.00000000E+00  0.00000000E+00  1.00000000E+00  0.00000000E+00  0.00000000E+00
  0.00000000E+00  0.00000000E+00  1.00000000E+00  0.00000000E+00  0.00000000E+00
  0.00000000E+00  0.00000000E+00  1.00000000E+00  0.00000000E+00  0.00000000E+00
  0.00000000E+00  0.00000000E+00  1.00000000E+00  0.00000000E+00  0.00000000E+00
  0.00000000E+00  0.00000000E+00  1.00000000E+00  0.00000000E+00  0.00000000E+00
  0.00000000E+00  0.00000000E+00  1.00000000E+00  0.00000000E+00  0.00000000E+00
  0.00000000E+00  0.00000000E+00  0.00000000E+00  1.00000000E+00  1.00000000E+00
ECP-MxAtEC                                 I           250000
ECP-MaxLECP                                I               10
ECP-MaxAtL                                 I          2250000
ECP-MxTECP                                 I         11250000
ECP-LenNCZ                                 I                0
ECP-KFirst                                 I   N=         120
           0           0           0           0           0           0
           0           0           0           0           0           0
           0           0           0           0           0           0
           0           0           0           0           0           0
           0           0           0           0           0           0
           0           0           0           0           0           0
           0           0           0           0           0           0
           0           0           0           0           0           0
           0           0           0           0           0           0
           0           0           0           0           0           0
           0           0           0           0           0           0
           0           0           0           0           0           0
           0           0           0           0           0           0
           0           0           0           0           0           0
           0           0           0           0           0           0
           0           0           0           0           0           0
           0           0           0           0           0           0
           0           0           0           0           0           0
           0           0           0           0           0           0
           0           0           0           0           0           0
ECP-KLast                                  I   N=         120
           0           0           0           0           0           0
           0           0           0           0           0           0
           0           0           0           0           0           0
           0           0           0           0           0           0
           0           0           0           0           0           0
           0           0           0           0           0           0
           0           0           0           0           0           0
           0           0           0           0           0           0
           0           0           0           0           0           0
           0           0           0           0           0           0
           0           0           0           0           0           0
           0           0           0           0           0           0
           0           0           0           0           0           0
           0           0           0           0           0           0
           0           0           0           0           0           0
           0           0           0           0           0           0
           0           0           0           0           0           0
           0           0           0           0           0           0
           0           0           0           0           0           0
           0           0           0           0           0           0
ECP-LMax                                   I   N=          12
           0           0           0           0           0           0
           0           0           0           0           0           0
ECP-LPSkip                                 I   N=          12
           1           1           1           1           1           1
           1           1           1           1           1           1
ECP-RNFroz                                 R   N=          12
  0.00000000E+00  0.00000000E+00  0.00000000E+00  0.00000000E+00  0.00000000E+00
  0.00000000E+00  0.00000000E+00  0.00000000E+00  0.00000000E+00  0.00000000E+00
  0.00000000E+00  0.00000000E+00
ECP-NLP                                    I                0
ECP-CLP1                                   R      0.000000000000000E+00
ECP-CLP2                                   R      0.000000000000000E+00
ECP-ZLP                                    R      0.000000000000000E+00
MxBond                                     I                3
NBond                                      I   N=          12
           3           3           3           3           3           3
           1           1           1           1           1           1
IBond                                      I   N=          36
           2           6           7           3           8           1
           4           9           2           5          10           3
           6          11           4          12           1           5
           1           0           0           2           0           0
           3           0           0           4           0           0
           5           0           0           6           0           0
RBond                                      R   N=          36
  1.50000000E+00  1.50000000E+00  1.00000000E+00  1.50000000E+00  1.00000000E+00
  1.50000000E+00  1.50000000E+00  1.00000000E+00  1.50000000E+00  1.50000000E+00
  1.00000000E+00  1.50000000E+00  1.50000000E+00  1.00000000E+00  1.50000000E+00
  1.00000000E+00  1.50000000E+00  1.50000000E+00  1.00000000E+00  0.00000000E+00
  0.00000000E+00  1.00000000E+00  0.00000000E+00  0.00000000E+00  1.00000000E+00
  0.00000000E+00  0.00000000E+00  1.00000000E+00  0.00000000E+00  0.00000000E+00
  1.00000000E+00  0.00000000E+00  0.00000000E+00  1.00000000E+00  0.00000000E+00
  0.00000000E+00
Virial Ratio                               R      2.007023208924846E+00
SCF Energy                                 R     -2.322544055335357E+02
Total Energy                               R     -2.322544055335357E+02
RMS Force                                  R      8.854315907336896E-06
RMS Density                                R      1.519004939439028E-09
External E-field                           R   N=          35
  0.00000000E+00  0.00000000E+00  0.00000000E+00  0.00000000E+00  0.00000000E+00
  0.00000000E+00  0.00000000E+00  0.00000000E+00  0.00000000E+00  0.00000000E+00
  0.00000000E+00  0.00000000E+00  0.00000000E+00  0.00000000E+00  0.00000000E+00
  0.00000000E+00  0.00000000E+00  0.00000000E+00  0.00000000E+00  0.00000000E+00
  0.00000000E+00  0.00000000E+00  0.00000000E+00  0.00000000E+00  0.00000000E+00
  0.00000000E+00  0.00000000E+00  0.00000000E+00  0.00000000E+00  0.00000000E+00
  0.00000000E+00  0.00000000E+00  0.00000000E+00  0.00000000E+00  0.00000000E+00
IOpCl                                      I                0
IROHF                                      I                0
Alpha Orbital Energies                     R   N=         120
 -1.01930862E+01 -1.01928750E+01 -1.01928747E+01 -1.01923958E+01 -1.01923955E+01
 -1.01921865E+01 -8.56389008E-01 -7.49628687E-01 -7.49628143E-01 -6.06813998E-01
 -6.06813529E-01 -5.27278661E-01 -4.67717435E-01 -4.48432623E-01 -4.26551006E-01
 -4.26550872E-01 -3.69132587E-01 -3.49728696E-01 -3.49727359E-01 -2.57016409E-01
 -2.57014801E-01 -1.44879127E-02 -1.44764128E-02  8.95974000E-03  2.62248183E-02
  2.62291950E-02  4.59485451E-02  4.59530614E-02  6.67911081E-02  7.80254324E-02
  7.98696232E-02  9.21273694E-02  9.23728834E-02  9.97820934E-02  1.26681205E-01
  1.42668034E-01  1.42802270E-01  1.44834498E-01  1.44867819E-01  1.55232699E-01
  1.55536184E-01  1.96106946E-01  1.96789031E-01  1.96798601E-01  2.05018609E-01
  2.11820962E-01  2.11980572E-01  2.35323838E-01  2.43798311E-01  2.43817531E-01
  2.66295187E-01  2.79034482E-01  2.79101883E-01  3.24683214E-01  3.47649181E-01
  3.47652409E-01  3.49003169E-01  3.49012276E-01  5.65203184E-01  5.75733483E-01
  6.00965713E-01  6.20476383E-01  6.59303191E-01  7.17516791E-01  7.17525516E-01
  7.22073134E-01  7.22118903E-01  7.46828164E-01  7.46836182E-01  7.71093301E-01
  7.71151218E-01  8.03491880E-01  8.32358976E-01  8.98534134E-01  9.31685840E-01
  9.31695112E-01  9.64465489E-01  9.64468864E-01  9.75244619E-01  1.03414301E+00
  1.07948029E+00  1.07957130E+00  1.13611360E+00  1.13611830E+00  1.17406894E+00
  1.17407520E+00  1.25073161E+00  1.31058063E+00  1.39147076E+00  1.43446573E+00
  1.43449091E+00  1.47780437E+00  1.47780537E+00  1.50488207E+00  1.50488323E+00
  1.75430453E+00  1.81528080E+00  1.88339803E+00  1.91066629E+00  1.98764012E+00
  1.98764319E+00  2.10398511E+00  2.10399032E+00  2.14951928E+00  2.14951988E+00
  2.16183349E+00  2.16183434E+00  2.30031251E+00  2.30031328E+00  2.31904431E+00
  2.57115514E+00  2.57115868E+00  2.64154903E+00  2.70047326E+00  2.70047735E+00
  2.73159242E+00  2.73159270E+00  2.82719293E+00  3.01740293E+00  3.39578263E+00
Alpha MO coefficients                      R   N=       14400
  4.06171919E-01  1.40491324E-02 -1.73904151E-04 -3.01909408E-04  1.38024237E-07
 -7.63929468E-03  4.10126378E-04  7.11928381E-04 -3.25256293E-07  5.66935926E-04
  5.69028669E-04  9.82036992E-04 -4.49820469E-07  1.49863548E-04 -3.49683513E-07
  1.49944743E-07 -1.86619347E-04  3.24052604E-04  4.06138327E-01  1.40478912E-02
  1.73994353E-04 -3.01861200E-04  2.48682395E-07 -7.63854596E-03 -4.10313202E-04
  7.11792366E-04 -5.85476106E-07  5.67165594E-04 -5.68727862E-04  9.82026377E-04
 -8.08536611E-07  1.49842271E-04  6.51982937E-08 -5.64190905E-08 -1.86784887E-04
 -3.23932753E-04  4.06443127E-01  1.40597574E-02  3.47938260E-04 -1.54922395E-08
  1.11038193E-07 -7.65004890E-03 -8.19695169E-04  3.66344815E-08 -2.61847815E-07
  6.01789586E-04 -1.14195085E-03  9.36437322E-08 -3.64420772E-07  1.49417368E-04
  3.67135021E-08  4.05027147E-07  3.73548469E-04 -4.09960701E-08  4.06134050E-01
  1.40477143E-02  1.74044939E-04  3.01847287E-04 -1.37919662E-07 -7.63831519E-03
 -4.10443916E-04 -7.11783501E-04  3.24962672E-07  5.66007523E-04 -5.68637617E-04
 -9.81836974E-04  4.49573151E-07  1.49856741E-04 -3.49529946E-07  1.49756454E-07
 -1.86741554E-04  3.23973448E-04  4.06188817E-01  1.40497816E-02 -1.73863205E-04
  3.01911466E-04 -2.48711509E-07 -7.63984844E-03  4.10019420E-04 -7.11912916E-04
  5.85835116E-07  5.68390287E-04  5.69161385E-04 -9.82340827E-04  8.06994696E-07
  1.49851453E-04  6.52721687E-08 -5.65253845E-08 -1.86675352E-04 -3.24007643E-04
  4.06530968E-01  1.40630441E-02 -3.47900665E-04  1.72179337E-09 -1.10951222E-07
 -7.65228762E-03  8.19636841E-04 -5.64148688E-09  2.61254315E-07  6.03793998E-04
  1.14278038E-03 -1.17090417E-07  3.66646819E-07  1.49434229E-04  3.65689088E-08
  4.04979911E-07  3.73566985E-04 -5.43813882E-08 -6.43779884E-04  2.70724291E-03
 -6.43743593E-04  2.70710705E-03 -6.43947621E-04  2.70776742E-03 -6.43742870E-04
  2.70710861E-03 -6.43792947E-04  2.70728664E-03 -6.44033464E-04  2.70808412E-03
 -2.80358981E-01 -1.04924478E-02 -8.91782646E-04  3.75608469E-04 -5.24632520E-07
  7.16967079E-03  1.98712065E-03 -9.16625449E-04  1.21936873E-06 -6.49078822E-03
 -2.62765336E-03 -1.55997992E-03  1.64199737E-07 -5.30173640E-05  1.11124343E-07
 -7.08420521E-07 -7.62008712E-04 -5.07029075E-04  2.93905514E-01  1.09993037E-02
 -8.81782096E-04 -3.63057186E-04 -4.82953656E-08 -7.51623046E-03  1.96276123E-03
  8.91028389E-04  5.51750336E-08  6.80655100E-03 -2.67167892E-03  1.68361294E-03
 -1.93062573E-06  5.55555704E-05  5.29449313E-07  3.80930662E-07  7.48195707E-04
 -5.02523859E-04  5.74752631E-01  2.15119921E-02 -2.47963229E-04  1.49000869E-05
 -8.81886553E-08 -1.47227915E-02  4.23404256E-04 -3.38134289E-05  1.55620039E-07
  1.34399378E-02 -5.48606105E-03  2.34550123E-05 -1.76031370E-06  1.07757493E-04
 -1.25490350E-08  1.90947153E-07  1.18409917E-04 -1.41759615E-05  2.80437032E-01
  1.04952168E-02 -8.91739929E-04  3.75618335E-04 -5.24575624E-07 -7.17142691E-03
  1.98704039E-03 -9.16618784E-04  1.21979340E-06  6.49280986E-03 -2.62775960E-03
 -1.56058521E-03  1.60250177E-07  5.30199414E-05 -1.11212439E-07  7.08144798E-07
  7.61958702E-04  5.07044835E-04 -2.93832102E-01 -1.09967154E-02 -8.81831600E-04
 -3.63043195E-04 -4.82474458E-08  7.51464418E-03  1.96286177E-03  8.91016174E-04
  5.44569854E-08 -6.80510301E-03 -2.67165359E-03  1.68309718E-03 -1.92579995E-06
 -5.55469198E-05 -5.29211672E-07 -3.80633406E-07 -7.48252306E-04  5.02505630E-04
 -5.74717201E-01 -2.15108844E-02 -2.48056676E-04  1.49039258E-05 -8.84511464E-08
  1.47226177E-02  4.23686802E-04 -3.38216127E-05  1.56941589E-07 -1.34431411E-02
 -5.48657448E-03  2.34831981E-05 -1.76502722E-06 -1.07699865E-04  1.26499315E-08
 -1.90776769E-07 -1.18320750E-04  1.41804495E-05  2.74020302E-04 -1.00723738E-03
 -2.87294327E-04  1.05602212E-03 -5.61808952E-04  2.06145114E-03 -2.74128956E-04
  1.00768475E-03  2.87188752E-04 -1.05558416E-03  5.61727029E-04 -2.06109093E-03
  5.01495482E-01  1.87696409E-02 -3.57008021E-04  4.55781575E-04 -4.05413476E-07
 -1.28392931E-02  8.73003546E-04 -9.26035513E-04  8.70938219E-07  1.16898986E-02
  1.66603977E-03  4.55828039E-03 -2.38786601E-06  9.42727851E-05 -1.03353607E-07
 -2.64840625E-07 -4.94317162E-04 -1.65771441E-04  4.93707413E-01  1.84781770E-02
  3.81086989E-04  4.65737050E-04 -1.76892361E-07 -1.26403382E-02 -9.26532383E-04
 -9.50556195E-04  3.14398174E-07  1.15095425E-02 -1.59368367E-03  4.51449360E-03
 -3.39851779E-06  9.28179936E-05 -3.30292491E-07 -1.69487583E-07 -5.14749395E-04
  1.79537679E-04 -7.78064890E-03 -2.91241581E-04  3.42070757E-06  1.09997676E-03
 -7.03305137E-07  1.99556561E-04 -5.99528176E-06 -2.49672389E-03  1.59673459E-06