gaussian.177024.boonlay-h00
 Entering Gaussian System, Link 0=g09
 Initial command:
 /usr/local/gaussian/g09/l1.exe /home/rwang013/scratch/gaussian.177024.boonlay-h00/Gau-26256.inp -scrdir=/home/rwang013/scratch/gaussian.177024.boonlay-h00/
 Entering Link 1 = /usr/local/gaussian/g09/l1.exe PID=     26257.
  
 Copyright (c) 1988,1990,1992,1993,1995,1998,2003,2009,2010,
            Gaussian, Inc.  All Rights Reserved.
  
 This is part of the Gaussian(R) 09 program.  It is based on
 the Gaussian(R) 03 system (copyright 2003, Gaussian, Inc.),
 the Gaussian(R) 98 system (copyright 1998, Gaussian, Inc.),
 the Gaussian(R) 94 system (copyright 1995, Gaussian, Inc.),
 the Gaussian 92(TM) system (copyright 1992, Gaussian, Inc.),
 the Gaussian 90(TM) system (copyright 1990, Gaussian, Inc.),
 the Gaussian 88(TM) system (copyright 1988, Gaussian, Inc.),
 the Gaussian 86(TM) system (copyright 1986, Carnegie Mellon
 University), and the Gaussian 82(TM) system (copyright 1983,
 Carnegie Mellon University). Gaussian is a federally registered
 trademark of Gaussian, Inc.
  
 This software contains proprietary and confidential information,
 including trade secrets, belonging to Gaussian, Inc.
  
 This software is provided under written license and may be
 used, copied, transmitted, or stored only in accord with that
 written license.
  
 The following legend is applicable only to US Government
 contracts under FAR:
  
                    RESTRICTED RIGHTS LEGEND
  
 Use, reproduction and disclosure by the US Government is
 subject to restrictions as set forth in subparagraphs (a)
 and (c) of the Commercial Computer Software - Restricted
 Rights clause in FAR 52.227-19.
  
 Gaussian, Inc.
 340 Quinnipiac St., Bldg. 40, Wallingford CT 06492
  
  
 ---------------------------------------------------------------
 Warning -- This program may not be used in any manner that
 competes with the business of Gaussian, Inc. or will provide
 assistance to any competitor of Gaussian, Inc.  The licensee
 of this program is prohibited from giving any competitor of
 Gaussian, Inc. access to this program.  By using this program,
 the user acknowledges that Gaussian, Inc. is engaged in the
 business of creating and licensing software in the field of
 computational chemistry and represents and warrants to the
 licensee that it is not a competitor of Gaussian, Inc. and that
 it will not use this program in any manner prohibited above.
 ---------------------------------------------------------------
  

 Cite this work as:
 Gaussian 09, Revision B.01,
 M. J. Frisch, G. W. Trucks, H. B. Schlegel, G. E. Scuseria, 
 M. A. Robb, J. R. Cheeseman, G. Scalmani, V. Barone, B. Mennucci, 
 G. A. Petersson, H. Nakatsuji, M. Caricato, X. Li, H. P. Hratchian, 
 A. F. Izmaylov, J. Bloino, G. Zheng, J. L. Sonnenberg, M. Hada, 
 M. Ehara, K. Toyota, R. Fukuda, J. Hasegawa, M. Ishida, T. Nakajima, 
 Y. Honda, O. Kitao, H. Nakai, T. Vreven, J. A. Montgomery, Jr., 
 J. E. Peralta, F. Ogliaro, M. Bearpark, J. J. Heyd, E. Brothers, 
 K. N. Kudin, V. N. Staroverov, T. Keith, R. Kobayashi, J. Normand, 
 K. Raghavachari, A. Rendell, J. C. Burant, S. S. Iyengar, J. Tomasi, 
 M. Cossi, N. Rega, J. M. Millam, M. Klene, J. E. Knox, J. B. Cross, 
 V. Bakken, C. Adamo, J. Jaramillo, R. Gomperts, R. E. Stratmann, 
 O. Yazyev, A. J. Austin, R. Cammi, C. Pomelli, J. W. Ochterski, 
 R. L. Martin, K. Morokuma, V. G. Zakrzewski, G. A. Voth, 
 P. Salvador, J. J. Dannenberg, S. Dapprich, A. D. Daniels, 
 O. Farkas, J. B. Foresman, J. V. Ortiz, J. Cioslowski, 
 and D. J. Fox, Gaussian, Inc., Wallingford CT, 2010.
 
 ******************************************
 Gaussian 09:  EM64L-G09RevB.01 12-Aug-2010
                29-Feb-2016 
 ******************************************
 %chk=/home/rwang013/scratch/gaussian.177024.boonlay-h00/this.chk
 %NProcShared=6
 Will use up to    6 processors via shared memory.
 %mem=12gb
 ----------------------------------------------------------------------
 #p int=ultrafine geom=allcheck nosymm guess=tcheck test genchk b3lyp/c
 hkbas freq=noraman iop(7/33=1)
 ----------------------------------------------------------------------
 1/10=4,29=7,30=1,38=1/1,3;
 2/12=2,15=1,40=1/2;
 3/5=7,6=2,11=2,14=-4,16=1,25=1,30=1,67=1,71=2,74=-5,75=-5,82=7,116=-2/1,2,3;
 4/5=101/1;
 5/5=2,98=1/2;
 8/6=4,10=90,11=11/1;
 11/6=1,8=1,9=11,15=111,16=1,31=1/1,2,10;
 10/6=1,31=1/2;
 6/7=2,8=2,9=2,10=2,18=1,28=1/1;
 7/8=1,10=1,25=1,30=1,33=1/1,2,3,16;
 1/10=4,30=1/3;
 99//99;
 Leave Link    1 at Mon Feb 29 16:27:48 2016, MaxMem= 1610612736 cpu:       0.4
 (Enter /usr/local/gaussian/g09/l101.exe)
 ---------
 opt-title
 ---------
 Redundant internal coordinates taken from checkpoint file:
 /home/rwang013/scratch/gaussian.177024.boonlay-h00/this.chk
 Charge =  0 Multiplicity = 1
 C,0,-0.1960660323,0.0839546103,0.0000603594
 C,0,1.2028250763,0.083884471,0.0005060189
 C,0,1.902331654,1.2953250354,-0.0000471364
 C,0,1.2029467077,2.506835148,-0.0010455962
 C,0,-0.1959444094,2.5069053169,-0.0014910918
 C,0,-0.8954509972,1.2954647382,-0.0009382991
 H,0,-0.7397513458,-0.8576259342,0.0004899871
 H,0,1.7464164212,-0.8577500156,0.0012814516
 H,0,2.9896068228,1.2952706254,0.0002992971
 H,0,1.7466322779,3.4484155332,-0.0014750375
 H,0,-0.7395361242,3.4485395988,-0.0022663791
 H,0,-1.9827261712,1.295519561,-0.0012845739
 Recover connectivity data from disk.
                    Isotopes and Nuclear Properties:
 (Nuclear quadrupole moments (NQMom) in fm**2, nuclear magnetic moments (NMagM)
  in nuclear magnetons)

  Atom         1           2           3           4           5           6           7           8           9          10
 IAtWgt=          12          12          12          12          12          12           1           1           1           1
 AtmWgt=  12.0000000  12.0000000  12.0000000  12.0000000  12.0000000  12.0000000   1.0078250   1.0078250   1.0078250   1.0078250
 NucSpn=           0           0           0           0           0           0           1           1           1           1
 AtZEff=  -3.6000000  -3.6000000  -3.6000000  -3.6000000  -3.6000000  -3.6000000  -1.0000000  -1.0000000  -1.0000000  -1.0000000
 NQMom=    0.0000000   0.0000000   0.0000000   0.0000000   0.0000000   0.0000000   0.0000000   0.0000000   0.0000000   0.0000000
 NMagM=    0.0000000   0.0000000   0.0000000   0.0000000   0.0000000   0.0000000   2.7928460   2.7928460   2.7928460   2.7928460

  Atom        11          12
 IAtWgt=           1           1
 AtmWgt=   1.0078250   1.0078250
 NucSpn=           1           1
 AtZEff=  -1.0000000  -1.0000000
 NQMom=    0.0000000   0.0000000
 NMagM=    2.7928460   2.7928460
 Leave Link  101 at Mon Feb 29 16:27:48 2016, MaxMem= 1610612736 cpu:       0.6
 (Enter /usr/local/gaussian/g09/l103.exe)

 GradGradGradGradGradGradGradGradGradGradGradGradGradGradGradGradGradGrad
 Berny optimization.
 Initialization pass.
                           ----------------------------
                           !    Initial Parameters    !
                           ! (Angstroms and Degrees)  !
 --------------------------                            --------------------------
 ! Name  Definition              Value          Derivative Info.                !
 --------------------------------------------------------------------------------
 ! R1    R(1,2)                  1.3989         calculate D2E/DX2 analytically  !
 ! R2    R(1,6)                  1.3989         calculate D2E/DX2 analytically  !
 ! R3    R(1,7)                  1.0873         calculate D2E/DX2 analytically  !
 ! R4    R(2,3)                  1.3989         calculate D2E/DX2 analytically  !
 ! R5    R(2,8)                  1.0873         calculate D2E/DX2 analytically  !
 ! R6    R(3,4)                  1.3989         calculate D2E/DX2 analytically  !
 ! R7    R(3,9)                  1.0873         calculate D2E/DX2 analytically  !
 ! R8    R(4,5)                  1.3989         calculate D2E/DX2 analytically  !
 ! R9    R(4,10)                 1.0873         calculate D2E/DX2 analytically  !
 ! R10   R(5,6)                  1.3989         calculate D2E/DX2 analytically  !
 ! R11   R(5,11)                 1.0873         calculate D2E/DX2 analytically  !
 ! R12   R(6,12)                 1.0873         calculate D2E/DX2 analytically  !
 ! A1    A(2,1,6)              120.0            calculate D2E/DX2 analytically  !
 ! A2    A(2,1,7)              120.0            calculate D2E/DX2 analytically  !
 ! A3    A(6,1,7)              120.0            calculate D2E/DX2 analytically  !
 ! A4    A(1,2,3)              120.0            calculate D2E/DX2 analytically  !
 ! A5    A(1,2,8)              120.0001         calculate D2E/DX2 analytically  !
 ! A6    A(3,2,8)              119.9999         calculate D2E/DX2 analytically  !
 ! A7    A(2,3,4)              120.0            calculate D2E/DX2 analytically  !
 ! A8    A(2,3,9)              120.0            calculate D2E/DX2 analytically  !
 ! A9    A(4,3,9)              120.0            calculate D2E/DX2 analytically  !
 ! A10   A(3,4,5)              120.0            calculate D2E/DX2 analytically  !
 ! A11   A(3,4,10)             120.0            calculate D2E/DX2 analytically  !
 ! A12   A(5,4,10)             120.0            calculate D2E/DX2 analytically  !
 ! A13   A(4,5,6)              120.0            calculate D2E/DX2 analytically  !
 ! A14   A(4,5,11)             120.0001         calculate D2E/DX2 analytically  !
 ! A15   A(6,5,11)             119.9999         calculate D2E/DX2 analytically  !
 ! A16   A(1,6,5)              120.0            calculate D2E/DX2 analytically  !
 ! A17   A(1,6,12)             120.0            calculate D2E/DX2 analytically  !
 ! A18   A(5,6,12)             120.0            calculate D2E/DX2 analytically  !
 ! D1    D(6,1,2,3)              0.0            calculate D2E/DX2 analytically  !
 ! D2    D(6,1,2,8)           -180.0            calculate D2E/DX2 analytically  !
 ! D3    D(7,1,2,3)            180.0            calculate D2E/DX2 analytically  !
 ! D4    D(7,1,2,8)              0.0            calculate D2E/DX2 analytically  !
 ! D5    D(2,1,6,5)              0.0            calculate D2E/DX2 analytically  !
 ! D6    D(2,1,6,12)          -180.0            calculate D2E/DX2 analytically  !
 ! D7    D(7,1,6,5)           -180.0            calculate D2E/DX2 analytically  !
 ! D8    D(7,1,6,12)             0.0            calculate D2E/DX2 analytically  !
 ! D9    D(1,2,3,4)              0.0            calculate D2E/DX2 analytically  !
 ! D10   D(1,2,3,9)            180.0            calculate D2E/DX2 analytically  !
 ! D11   D(8,2,3,4)            180.0            calculate D2E/DX2 analytically  !
 ! D12   D(8,2,3,9)             -0.0001         calculate D2E/DX2 analytically  !
 ! D13   D(2,3,4,5)              0.0            calculate D2E/DX2 analytically  !
 ! D14   D(2,3,4,10)           180.0            calculate D2E/DX2 analytically  !
 ! D15   D(9,3,4,5)           -180.0            calculate D2E/DX2 analytically  !
 ! D16   D(9,3,4,10)             0.0            calculate D2E/DX2 analytically  !
 ! D17   D(3,4,5,6)              0.0            calculate D2E/DX2 analytically  !
 ! D18   D(3,4,5,11)           180.0            calculate D2E/DX2 analytically  !
 ! D19   D(10,4,5,6)          -180.0            calculate D2E/DX2 analytically  !
 ! D20   D(10,4,5,11)            0.0            calculate D2E/DX2 analytically  !
 ! D21   D(4,5,6,1)              0.0            calculate D2E/DX2 analytically  !
 ! D22   D(4,5,6,12)          -180.0            calculate D2E/DX2 analytically  !
 ! D23   D(11,5,6,1)          -179.9999         calculate D2E/DX2 analytically  !
 ! D24   D(11,5,6,12)            0.0            calculate D2E/DX2 analytically  !
 --------------------------------------------------------------------------------
 Trust Radius=3.00D-01 FncErr=1.00D-07 GrdErr=1.00D-07
 Number of steps in this run=      2 maximum allowed number of steps=      2.
 GradGradGradGradGradGradGradGradGradGradGradGradGradGradGradGradGradGrad

 Leave Link  103 at Mon Feb 29 16:27:48 2016, MaxMem= 1610612736 cpu:       0.1
 (Enter /usr/local/gaussian/g09/l202.exe)
                          Input orientation:                          
 ---------------------------------------------------------------------
 Center     Atomic      Atomic             Coordinates (Angstroms)
 Number     Number       Type             X           Y           Z
 ---------------------------------------------------------------------
      1          6           0       -0.196066    0.083955    0.000060
      2          6           0        1.202825    0.083884    0.000506
      3          6           0        1.902332    1.295325   -0.000047
      4          6           0        1.202947    2.506835   -0.001046
      5          6           0       -0.195944    2.506905   -0.001491
      6          6           0       -0.895451    1.295465   -0.000938
      7          1           0       -0.739751   -0.857626    0.000490
      8          1           0        1.746416   -0.857750    0.001281
      9          1           0        2.989607    1.295271    0.000299
     10          1           0        1.746632    3.448416   -0.001475
     11          1           0       -0.739536    3.448540   -0.002266
     12          1           0       -1.982726    1.295520   -0.001285
 ---------------------------------------------------------------------
                    Distance matrix (angstroms):
                    1          2          3          4          5
     1  C    0.000000
     2  C    1.398891   0.000000
     3  C    2.422951   1.398892   0.000000
     4  C    2.797783   2.422951   1.398891   0.000000
     5  C    2.422951   2.797783   2.422951   1.398891   0.000000
     6  C    1.398891   2.422951   2.797783   2.422951   1.398892
     7  H    1.087275   2.158714   3.408196   3.885058   3.408196
     8  H    2.158714   1.087275   2.158713   3.408196   3.885058
     9  H    3.408196   2.158714   1.087275   2.158714   3.408196
    10  H    3.885058   3.408196   2.158713   1.087275   2.158714
    11  H    3.408196   3.885058   3.408196   2.158715   1.087275
    12  H    2.158714   3.408196   3.885058   3.408196   2.158714
                    6          7          8          9         10
     6  C    0.000000
     7  H    2.158713   0.000000
     8  H    3.408196   2.486168   0.000000
     9  H    3.885058   4.306167   2.486166   0.000000
    10  H    3.408196   4.972334   4.306166   2.486166   0.000000
    11  H    2.158713   4.306166   4.972334   4.306168   2.486169
    12  H    1.087275   2.486167   4.306168   4.972333   4.306167
                   11         12
    11  H    0.000000
    12  H    2.486165   0.000000
 Symmetry turned off by external request.
 Stoichiometry    C6H6
 Framework group  C1[X(C6H6)]
 Deg. of freedom    30
 Full point group                 C1      NOp   1
 Rotational constants (GHZ):      5.6697220      5.6697213      2.8348608
 Leave Link  202 at Mon Feb 29 16:27:48 2016, MaxMem= 1610612736 cpu:       0.0
 (Enter /usr/local/gaussian/g09/l301.exe)
 Basis read from chk: /home/rwang013/scratch/gaussian.177024.boonlay-h00/this.chk
  (5D, 7F)
 Pseudo-potential data read from chk file.
 Integral buffers will be    131072 words long.
 Raffenetti 2 integral format.
 Two-electron integral symmetry is turned off.
   120 basis functions,   216 primitive gaussians,   126 cartesian basis functions
    21 alpha electrons       21 beta electrons
       nuclear repulsion energy       202.8986110856 Hartrees.
 IExCor=  402 DFT=T Ex+Corr=B3LYP ExCW=0 ScaHFX=  0.200000
 ScaDFX=  0.800000  0.720000  1.000000  0.810000 ScalE2=  1.000000  1.000000
 IRadAn=      5 IRanWt=     -1 IRanGd=            0 ICorTp=0
 NAtoms=   12 NActive=   12 NUniq=   12 SFac= 1.00D+00 NAtFMM=   50 NAOKFM=F Big=F
 No density basis found on file 20724.
 Leave Link  301 at Mon Feb 29 16:27:48 2016, MaxMem= 1610612736 cpu:       0.4
 (Enter /usr/local/gaussian/g09/l302.exe)
 NPDir=0 NMtPBC=     1 NCelOv=     1 NCel=       1 NClECP=     1 NCelD=      1
         NCelK=      1 NCelE2=     1 NClLst=     1 CellRange=     0.0.
 One-electron integrals computed using PRISM.
   1 Symmetry operations used in ECPInt.
 ECPInt:  NShTT=     903 NPrTT=    4782 LenC2=     904 LenP2D=    3780.
 LDataN:  DoStor=T MaxTD1= 4 Len=   56
 NBasis=   120 RedAO= T  NBF=   120
 NBsUse=   120 1.00D-06 NBFU=   120
 Precomputing XC quadrature grid using
 IXCGrd= 2 IRadAn=           5 IRanWt=          -1 IRanGd=           0 AccXCQ= 0.00D+00.
 NRdTot=    1014 NPtTot=      272232 NUsed=      279499 NTot=      279531
 NSgBfM=   126   126   126   126   126 NAtAll=    12    12.
 Leave Link  302 at Mon Feb 29 16:27:48 2016, MaxMem= 1610612736 cpu:       1.3
 (Enter /usr/local/gaussian/g09/l303.exe)
 DipDrv:  MaxL=1.
 Leave Link  303 at Mon Feb 29 16:27:48 2016, MaxMem= 1610612736 cpu:       0.2
 (Enter /usr/local/gaussian/g09/l401.exe)
 Initial guess read from the checkpoint file:  /home/rwang013/scratch/gaussian.177024.boonlay-h00/this.chk
 B after Tr=     0.000000    0.000000    0.000000
         Rot=    1.000000    0.000000    0.000000    0.000000 Ang=   0.00 deg.
 Guess basis will be translated and rotated to current coordinates.
 Leave Link  401 at Mon Feb 29 16:27:49 2016, MaxMem= 1610612736 cpu:       0.7
 (Enter /usr/local/gaussian/g09/l502.exe)
 Closed shell SCF:
 Requested convergence on RMS density matrix=1.00D-08 within 128 cycles.
 Requested convergence on MAX density matrix=1.00D-06.
 Requested convergence on             energy=1.00D-06.
 No special actions if energy rises.
 Using DIIS extrapolation, IDIIS=  1040.
 Two-electron integral symmetry not used.
       279378 words used for storage of precomputed grid.
 Keep R1 ints in memory in canonical form, NReq=33382831.
 IEnd=      346688 IEndB=      346688 NGot=  1610612736 MDV=  1578286662
 LenX=  1578286662 LenY=  1578270345
 Symmetry not used in FoFDir.
 MinBra= 0 MaxBra= 2 Meth= 1.
 IRaf=       0 NMat=   1 IRICut=       1 DoRegI=T DoRafI=F ISym2E= 0 JSym2E=0.

 Cycle   1  Pass 1  IDiag  1:
 E= -232.254395843945    
 DIIS: error= 1.56D-08 at cycle   1 NSaved=   1.
 NSaved= 1 IEnMin= 1 EnMin= -232.254395843945     IErMin= 1 ErrMin= 1.56D-08
 ErrMax= 1.56D-08 EMaxC= 1.00D-01 BMatC= 3.08D-14 BMatP= 3.08D-14
 IDIUse=1 WtCom= 1.00D+00 WtEn= 0.00D+00
 Coeff-Com:  0.100D+01
 Coeff:      0.100D+01
 Gap=     0.243 Goal=   None    Shift=    0.000
 RMSDP=5.28D-09 MaxDP=8.52D-08              OVMax= 2.06D-07

 SCF Done:  E(RB3LYP) =  -232.254395844     A.U. after    1 cycles
             Convg  =    0.5277D-08             -V/T =  2.0070
 KE= 2.306346208471D+02 PE=-9.434946382242D+02 EE= 2.777070104475D+02
 Leave Link  502 at Mon Feb 29 16:27:50 2016, MaxMem= 1610612736 cpu:       9.9
 (Enter /usr/local/gaussian/g09/l801.exe)
 Range of M.O.s used for correlation:     1   120
 NBasis=   120 NAE=    21 NBE=    21 NFC=     0 NFV=     0
 NROrb=    120 NOA=    21 NOB=    21 NVA=    99 NVB=    99

 **** Warning!!: The largest alpha MO coefficient is  0.10066728D+03

 Leave Link  801 at Mon Feb 29 16:27:50 2016, MaxMem= 1610612736 cpu:       0.2
 (Enter /usr/local/gaussian/g09/l1101.exe)
 Using compressed storage, NAtomX=    12.
 Will process  13 centers per pass.
   1 Symmetry operations used in ECPInt.
 ECPInt:  NShTT=     903 NPrTT=    4782 LenC2=     904 LenP2D=    3780.
 LDataN:  DoStor=T MaxTD1= 5 Len=  102
 Leave Link 1101 at Mon Feb 29 16:27:51 2016, MaxMem= 1610612736 cpu:       1.0
 (Enter /usr/local/gaussian/g09/l1102.exe)
 Symmetrizing basis deriv contribution to polar:
 IMax=3 JMax=2 DiffMx= 0.00D+00
 Leave Link 1102 at Mon Feb 29 16:27:51 2016, MaxMem= 1610612736 cpu:       0.2
 (Enter /usr/local/gaussian/g09/l1110.exe)
 Forming Gx(P) for the SCF density, NAtomX=    12.
 Integral derivatives from FoFDir/FoFCou, PRISM(SPDF).
 Do as many integral derivatives as possible in FoFDir.
 G2DrvN: MDV=    1610612536.
 G2DrvN: will do    13 centers at a time, making    1 passes doing MaxLOS=2.
 Calling FoFCou, ICntrl=  3107 FMM=F I1Cent=   0 AccDes= 0.00D+00.
 FoFCou: FMM=F IPFlag=           0 FMFlag=      100000 FMFlg1=           0
         NFxFlg=           0 DoJE=F BraDBF=F KetDBF=F FulRan=T
         Omega=  0.000000  0.000000  1.000000  0.000000  0.000000 ICntrl=    3107 IOpCl=  0
         NMat0=    1 NMatS0=    1 NMatT0=    0 NMatD0=    1 NMtDS0=    0 NMtDT0=    0
         I1Cent=           0 NGrid=           0.
 Symmetry not used in FoFCou.
 FoFDir/FoFCou used for L=0 through L=2.
 End of G2Drv Frequency-dependent properties file   721 does not exist.
 End of G2Drv Frequency-dependent properties file   722 does not exist.
 Leave Link 1110 at Mon Feb 29 16:28:18 2016, MaxMem= 1610612736 cpu:     162.4
 (Enter /usr/local/gaussian/g09/l1002.exe)
 Minotr:  Closed shell wavefunction.
          IDoAtm=111111111111
          Direct CPHF calculation.
          Differentiating once with respect to electric field.
                with respect to dipole field.
          Differentiating once with respect to nuclear coordinates.
          Requested convergence is 1.0D-08 RMS, and 1.0D-07 maximum.
          Secondary convergence is 1.0D-12 RMS, and 1.0D-12 maximum.
          NewPWx=T KeepS1=F KeepF1=F KeepIn=T MapXYZ=F SortEE=F KeepMc=T.
          MDV=    1610612612 using IRadAn=       1.
 Generate precomputed XC quadrature information.
          Keep R1 ints in memory in canonical form, NReq=32836783.
 Symmetry not used in FoFDir.
 MinBra= 0 MaxBra= 2 Meth= 1.
 IRaf=       0 NMat=   1 IRICut=       1 DoRegI=T DoRafI=F ISym2E= 0 JSym2E=0.
          Solving linear equations simultaneously, MaxMat=       0.
          There are    39 degrees of freedom in the 1st order CPHF.  IDoFFX=5.
     36 vectors produced by pass  0 Test12= 5.33D-15 2.56D-09 XBig12= 9.55D+01 5.99D+00.
 AX will form    36 AO Fock derivatives at one time.
     36 vectors produced by pass  1 Test12= 5.33D-15 2.56D-09 XBig12= 1.29D+01 8.61D-01.
     36 vectors produced by pass  2 Test12= 5.33D-15 2.56D-09 XBig12= 1.04D-01 8.58D-02.
     36 vectors produced by pass  3 Test12= 5.33D-15 2.56D-09 XBig12= 2.78D-04 3.63D-03.
     36 vectors produced by pass  4 Test12= 5.33D-15 2.56D-09 XBig12= 2.83D-07 1.21D-04.
     29 vectors produced by pass  5 Test12= 5.33D-15 2.56D-09 XBig12= 1.59D-10 3.47D-06.
      3 vectors produced by pass  6 Test12= 5.33D-15 2.56D-09 XBig12= 8.78D-14 7.86D-08.
      1 vectors produced by pass  7 Test12= 5.33D-15 2.56D-09 XBig12= 7.51D-17 2.71D-09.
 Inverted reduced A of dimension   213 with in-core refinement.
 FullF1:  Do perturbations    1 to     3.
 Isotropic polarizability for W=    0.000000       66.10 Bohr**3.
 End of Minotr Frequency-dependent properties file   721 does not exist.
 End of Minotr Frequency-dependent properties file   722 does not exist.
 Leave Link 1002 at Mon Feb 29 16:28:45 2016, MaxMem= 1610612736 cpu:     159.1
 (Enter /usr/local/gaussian/g09/l601.exe)
 Copying SCF densities to generalized density rwf, IOpCl= 0 IROHF=0.

 **********************************************************************

            Population analysis using the SCF density.

 **********************************************************************

 Alpha  occ. eigenvalues --  -10.19308 -10.19287 -10.19287 -10.19239 -10.19239
 Alpha  occ. eigenvalues --  -10.19218  -0.85639  -0.74963  -0.74963  -0.60681
 Alpha  occ. eigenvalues --   -0.60681  -0.52728  -0.46772  -0.44843  -0.42655
 Alpha  occ. eigenvalues --   -0.42655  -0.36913  -0.34973  -0.34973  -0.25702
 Alpha  occ. eigenvalues --   -0.25702
 Alpha virt. eigenvalues --   -0.01448  -0.01448   0.00896   0.02623   0.02623
 Alpha virt. eigenvalues --    0.04595   0.04595   0.06685   0.07803   0.07983
 Alpha virt. eigenvalues --    0.09228   0.09228   0.09978   0.12668   0.14272
 Alpha virt. eigenvalues --    0.14273   0.14485   0.14485   0.15543   0.15544
 Alpha virt. eigenvalues --    0.19609   0.19680   0.19680   0.20501   0.21190
 Alpha virt. eigenvalues --    0.21190   0.23532   0.24381   0.24381   0.26630
 Alpha virt. eigenvalues --    0.27907   0.27907   0.32468   0.34765   0.34765
 Alpha virt. eigenvalues --    0.34901   0.34901   0.56520   0.57573   0.60097
 Alpha virt. eigenvalues --    0.62048   0.65937   0.71752   0.71752   0.72209
 Alpha virt. eigenvalues --    0.72210   0.74683   0.74683   0.77113   0.77113
 Alpha virt. eigenvalues --    0.80349   0.83235   0.89853   0.93169   0.93169
 Alpha virt. eigenvalues --    0.96446   0.96446   0.97524   1.03414   1.07953
 Alpha virt. eigenvalues --    1.07953   1.13611   1.13611   1.17407   1.17407
 Alpha virt. eigenvalues --    1.25073   1.31058   1.39147   1.43448   1.43448
 Alpha virt. eigenvalues --    1.47781   1.47781   1.50488   1.50488   1.75431
 Alpha virt. eigenvalues --    1.81528   1.88340   1.91067   1.98765   1.98765
 Alpha virt. eigenvalues --    2.10399   2.10399   2.14952   2.14952   2.16183
 Alpha virt. eigenvalues --    2.16183   2.30031   2.30031   2.31905   2.57116
 Alpha virt. eigenvalues --    2.57116   2.64155   2.70047   2.70048   2.73159
 Alpha virt. eigenvalues --    2.73159   2.82720   3.01740   3.39578
          Condensed to atoms (all electrons):
              1          2          3          4          5          6
     1  C    5.022891   0.525971  -0.101241   0.011548  -0.101239   0.525971
     2  C    0.525971   5.022890   0.525970  -0.101239   0.011548  -0.101241
     3  C   -0.101241   0.525970   5.022903   0.525970  -0.101241   0.011547
     4  C    0.011548  -0.101239   0.525970   5.022890   0.525971  -0.101241
     5  C   -0.101239   0.011548  -0.101241   0.525971   5.022891   0.525970
     6  C    0.525971  -0.101241   0.011547  -0.101241   0.525970   5.022904
     7  H    0.281687  -0.002777   0.013074  -0.009381   0.013074  -0.002777
     8  H   -0.002778   0.281687  -0.002778   0.013074  -0.009381   0.013074
     9  H    0.013074  -0.002777   0.281685  -0.002777   0.013074  -0.009381
    10  H   -0.009381   0.013074  -0.002777   0.281687  -0.002778   0.013074
    11  H    0.013074  -0.009381   0.013074  -0.002778   0.281687  -0.002778
    12  H   -0.002777   0.013074  -0.009381   0.013074  -0.002777   0.281685
              7          8          9         10         11         12
     1  C    0.281687  -0.002778   0.013074  -0.009381   0.013074  -0.002777
     2  C   -0.002777   0.281687  -0.002777   0.013074  -0.009381   0.013074
     3  C    0.013074  -0.002778   0.281685  -0.002777   0.013074  -0.009381
     4  C   -0.009381   0.013074  -0.002777   0.281687  -0.002778   0.013074
     5  C    0.013074  -0.009381   0.013074  -0.002778   0.281687  -0.002777
     6  C   -0.002777   0.013074  -0.009381   0.013074  -0.002778   0.281685
     7  H    0.541126  -0.005268  -0.000154   0.000015  -0.000154  -0.005268
     8  H   -0.005268   0.541126  -0.005268  -0.000154   0.000015  -0.000154
     9  H   -0.000154  -0.005268   0.541127  -0.005268  -0.000154   0.000015
    10  H    0.000015  -0.000154  -0.005268   0.541126  -0.005268  -0.000154
    11  H   -0.000154   0.000015  -0.000154  -0.005268   0.541126  -0.005268
    12  H   -0.005268  -0.000154   0.000015  -0.000154  -0.005268   0.541127
 Mulliken atomic charges:
              1
     1  C   -0.176801
     2  C   -0.176801
     3  C   -0.176807
     4  C   -0.176801
     5  C   -0.176802
     6  C   -0.176808
     7  H    0.176804
     8  H    0.176804
     9  H    0.176803
    10  H    0.176803
    11  H    0.176804
    12  H    0.176803
 Sum of Mulliken atomic charges =   0.00000
 Mulliken charges with hydrogens summed into heavy atoms:
              1
     1  C    0.000002
     2  C    0.000002
     3  C   -0.000004
     4  C    0.000002
     5  C    0.000002
     6  C   -0.000005
 Sum of Mulliken charges with hydrogens summed into heavy atoms =   0.00000
 APT atomic charges:
              1
     1  C   -0.026439
     2  C   -0.026440
     3  C   -0.026472
     4  C   -0.026439
     5  C   -0.026440
     6  C   -0.026472
     7  H    0.026453
     8  H    0.026453
     9  H    0.026445
    10  H    0.026453
    11  H    0.026453
    12  H    0.026446
 Sum of APT charges=   0.00000
 APT Atomic charges with hydrogens summed into heavy atoms:
              1
     1  C    0.000013
     2  C    0.000013
     3  C   -0.000027
     4  C    0.000014
     5  C    0.000013
     6  C   -0.000027
     7  H    0.000000
     8  H    0.000000
     9  H    0.000000
    10  H    0.000000
    11  H    0.000000
    12  H    0.000000
 Sum of APT charges=   0.00000
 Electronic spatial extent (au):  <R**2>=            751.6380
 Charge=              0.0000 electrons
 Dipole moment (field-independent basis, Debye):
    X=              0.0000    Y=              0.0000    Z=              0.0000  Tot=              0.0000
 Quadrupole moment (field-independent basis, Debye-Ang):
   XX=            -32.1975   YY=            -32.1974   ZZ=            -40.4235
   XY=              0.0000   XZ=              0.0026   YZ=             -0.0053
 Traceless Quadrupole moment (field-independent basis, Debye-Ang):
   XX=              2.7420   YY=              2.7420   ZZ=             -5.4841
   XY=              0.0000   XZ=              0.0026   YZ=             -0.0053
 Octapole moment (field-independent basis, Debye-Ang**2):
  XXX=            -48.6285  YYY=           -125.1252  ZZZ=              0.0597  XYY=            -16.2095
  XXY=            -41.7084  XXZ=              0.0185  XZZ=            -20.3508  YZZ=            -52.3644
  YYZ=              0.0022  XYZ=              0.0007
 Hexadecapole moment (field-independent basis, Debye-Ang**3):
 XXXX=           -329.9015 YYYY=           -605.1112 ZZZZ=            -52.2240 XXXY=            -62.9931
 XXXZ=             -0.0001 YYYX=            -62.9931 YYYZ=              0.0875 ZZZX=             -0.0167
 ZZZY=              0.1715 XXYY=           -155.8354 XXZZ=            -76.6560 YYZZ=           -134.2432
 XXYZ=              0.0401 YYXZ=             -0.0032 ZZXY=            -26.3624
 N-N= 2.028986110856D+02 E-N=-9.434946378792D+02  KE= 2.306346208471D+02
  Exact polarizability:  78.650   0.000  78.648   0.012  -0.024  40.991
 Approx polarizability: 126.031   0.000 126.031   0.022  -0.044  56.787
 No NMR shielding tensors so no spin-rotation constants.
 Leave Link  601 at Mon Feb 29 16:28:45 2016, MaxMem= 1610612736 cpu:       1.0
 (Enter /usr/local/gaussian/g09/l701.exe)
 Compute integral second derivatives.
 ... and contract with generalized density number  0.
 Entering OneElI...
 Calculate overlap and kinetic energy integrals
    NBasis = 126  MinDer = 2  MaxDer = 2
 Requested accuracy = 0.1000D-12
 PrsmSu:  NPrtUS=   6 ThrOK=T IAlg=1 NPAlg=1 LenDen=           0.
 Prism:   IPart=     0 DynPar=F LinDyn=F Incr=           1.
 PRISM was handed   268384432 working-precision words and   903 shell-pairs
 PRISM was handed   268384432 working-precision words and   903 shell-pairs
 PRISM was handed   268384432 working-precision words and   903 shell-pairs
 PRISM was handed   268384432 working-precision words and   903 shell-pairs
 PRISM was handed   268384432 working-precision words and   903 shell-pairs
 PRISM was handed   268384432 working-precision words and   903 shell-pairs
 IPart=  1 NShTot=         153 NBatch=          30 AvBLen=         5.1
 IPart=  2 NShTot=         153 NBatch=          30 AvBLen=         5.1
 IPart=  3 NShTot=         148 NBatch=          30 AvBLen=         4.9
 IPart=  4 NShTot=         148 NBatch=          30 AvBLen=         4.9
 IPart=  5 NShTot=         148 NBatch=          30 AvBLen=         4.9
 IPart=  0 NShTot=         153 NBatch=          30 AvBLen=         5.1
 PrSmSu:  NxtVal=              7.
 Entering OneElI...
 Calculate potential energy integrals
    NBasis = 126  MinDer = 2  MaxDer = 2
 Requested accuracy = 0.1000D-12
 PrsmSu:  NPrtUS=   6 ThrOK=T IAlg=1 NPAlg=1 LenDen=           0.
 Prism:   IPart=     0 DynPar=F LinDyn=F Incr=          17.
 PRISM was handed   268392006 working-precision words and   885 shell-pairs
 PRISM was handed   268392006 working-precision words and   885 shell-pairs
 PRISM was handed   268392006 working-precision words and   885 shell-pairs
 PRISM was handed   268392006 working-precision words and   885 shell-pairs
 PRISM was handed   268392006 working-precision words and   885 shell-pairs
 PRISM was handed   268392006 working-precision words and   885 shell-pairs
 IPart=  1 NShTot=        1788 NBatch=         149 AvBLen=        12.0
 IPart=  4 NShTot=        1752 NBatch=         146 AvBLen=        12.0
 IPart=  3 NShTot=        1752 NBatch=         146 AvBLen=        12.0
 IPart=  2 NShTot=        1788 NBatch=         149 AvBLen=        12.0
 IPart=  5 NShTot=        1752 NBatch=         146 AvBLen=        12.0
 IPart=  0 NShTot=        1788 NBatch=         149 AvBLen=        12.0
 PrSmSu:  NxtVal=            103.
   1 Symmetry operations used in ECPInt.
 ECPInt:  NShTT=     903 NPrTT=    4782 LenC2=     904 LenP2D=    4608.
 LDataN:  DoStor=F MaxTD1= 6 Len=  172
 LDataN:  DoStor=T MaxTD1= 6 Len=  172
 ECPSu:  NPrtUS=   6 ThrOK=T
 Polarizability after L701:
                1             2             3 
      1  0.786501D+02
      2  0.175382D-05  0.786479D+02
      3  0.119773D-01 -0.241144D-01  0.409906D+02
 Dipole Derivatives after L701:
                 1             2             3             4             5 
      1  -0.651146D-02  0.656488D-01  0.133051D-05 -0.652402D-02 -0.656409D-01
      2   0.656216D-01  0.693079D-01 -0.114218D-03 -0.656148D-01  0.693205D-01
      3   0.000000D+00 -0.113768D-03 -0.142115D+00  0.848043D-04 -0.156737D-03
                 6             7             8             9            10 
      1   0.849269D-04  0.107180D+00 -0.750513D-05  0.795659D-04 -0.651053D-02
      2  -0.155928D-03 -0.770898D-05 -0.444911D-01 -0.628421D-04  0.656228D-01
      3  -0.142115D+00  0.801905D-04 -0.626694D-04 -0.142105D+00  0.000000D+00
                11            12            13            14            15 
      1   0.656485D-01  0.132435D-05 -0.652491D-02 -0.656411D-01  0.849974D-04
      2   0.693079D-01 -0.114121D-03 -0.656138D-01  0.693202D-01 -0.155999D-03
      3  -0.113722D-03 -0.142115D+00  0.847483D-04 -0.156643D-03 -0.142115D+00
                16            17            18            19            20 
      1   0.107179D+00 -0.745701D-05  0.793467D-04  0.157859D-01 -0.817166D-01
      2  -0.780636D-05 -0.444918D-01 -0.628124D-04 -0.817146D-01 -0.785419D-01
      3   0.802224D-04 -0.626637D-04 -0.142104D+00  0.120736D-04  0.115201D-03
                21            22            23            24            25 
      1   0.120206D-04  0.158022D-01  0.817070D-01 -0.923186D-04 -0.125732D+00
      2   0.115217D-03  0.817052D-01 -0.785581D-01  0.167170D-03  0.943613D-05
      3   0.142115D+00 -0.923954D-04  0.167298D-03  0.142115D+00 -0.852427D-04
                26            27            28            29            30 
      1   0.941801D-05 -0.855086D-04  0.157858D-01 -0.817166D-01  0.120269D-04
      2   0.629630D-01  0.506106D-04 -0.817148D-01 -0.785421D-01  0.115139D-03
      3   0.506439D-04  0.142105D+00  0.120768D-04  0.115175D-03  0.142115D+00
                31            32            33            34            35 
      1   0.158023D-01  0.817069D-01 -0.923610D-04 -0.125732D+00  0.955273D-05
      2   0.817051D-01 -0.785578D-01  0.167193D-03  0.946172D-05  0.629632D-01
      3  -0.923773D-04  0.167249D-03  0.142115D+00 -0.852631D-04  0.506365D-04
                36 
      1  -0.853511D-04
      2   0.505913D-04
      3   0.142105D+00
 Hessian after L701:
                1             2             3             4             5 
      1  0.767671D+01
      2  0.214646D+01  0.101547D+02
      3 -0.584080D-02  0.807502D-02  0.216948D+02
      4  0.673690D+00  0.308871D+00  0.298431D-02  0.767627D+01
      5 -0.309733D+00 -0.790211D+01 -0.100368D-02 -0.214621D+01  0.101551D+02
      6  0.338096D-02 -0.806640D-03 -0.931610D+01 -0.308981D-02  0.670655D-02
      7  0.426825D+00  0.265032D+00 -0.411771D-04 -0.575777D+01  0.402295D+01
      8  0.369211D+00  0.605573D-01  0.927357D-04  0.340435D+01 -0.147062D+01
      9 -0.107720D-03  0.596096D-04  0.219948D-01 -0.104781D-02 -0.374411D-02
     10 -0.253078D+00  0.314514D-01 -0.115781D-03 -0.122509D+00 -0.520513D-01
     11  0.314515D-01 -0.216769D+00  0.179047D-03  0.521248D-01  0.609893D+00
     12 -0.115782D-03  0.179043D-03  0.474088D-01 -0.794269D-04 -0.393361D-03
     13 -0.122509D+00  0.521248D-01 -0.794605D-04 -0.253084D+00 -0.314484D-01
     14 -0.520513D-01  0.609893D+00 -0.393647D-03 -0.314483D-01 -0.216762D+00
     15 -0.128439D-04 -0.360277D-03  0.219962D-01 -0.753209D-04  0.158588D-03
     16 -0.575852D+01 -0.402252D+01  0.371022D-02  0.426761D+00 -0.265069D+00
     17 -0.340392D+01 -0.146988D+01 -0.611007D-02 -0.369248D+00  0.606202D-01
     18  0.331361D-02 -0.630740D-02 -0.931610D+01  0.366161D-03 -0.109581D-03
     19 -0.267606D+01  0.102236D+01 -0.490706D-03 -0.110053D+00 -0.528387D-01
     20  0.102236D+01 -0.149582D+01 -0.758942D-03 -0.190872D-01  0.957470D-01
     21 -0.490748D-03 -0.759046D-03 -0.319016D+01 -0.418059D-04 -0.401266D-04
     22 -0.110046D+00  0.528592D-01 -0.877113D-04 -0.267626D+01 -0.102224D+01
     23  0.191080D-01  0.957398D-01 -0.171900D-04 -0.102224D+01 -0.149562D+01
     24 -0.661703D-04 -0.642524D-05  0.594080D-01  0.817316D-03 -0.140903D-02
     25  0.166120D+00  0.892445D-01  0.834594D-05  0.131286D-01 -0.902260D-01
     26  0.671452D-01 -0.218770D-01  0.100496D-04 -0.123977D+00 -0.274384D-01
     27  0.225358D-04  0.170998D-04 -0.395832D-01  0.647201D-04  0.269204D-04
     28  0.632642D-02  0.172282D-01 -0.791825D-05 -0.425962D-01  0.533570D-01
     29  0.172279D-01  0.262157D-01 -0.135565D-04  0.312581D-01  0.186839D+00
     30 -0.789839D-05 -0.135221D-04 -0.348787D-02 -0.209741D-04 -0.127935D-03
     31 -0.426047D-01 -0.533342D-01  0.331871D-04  0.632298D-02 -0.172262D-01
     32 -0.312352D-01  0.186847D+00 -0.154900D-03 -0.172258D-01  0.262192D-01
     33  0.190299D-04 -0.161857D-03 -0.395827D-01  0.141400D-04 -0.244755D-04
     34  0.131506D-01  0.902218D-01 -0.725026D-04  0.166104D+00 -0.892632D-01
     35  0.123972D+00 -0.274600D-01  0.951328D-04 -0.671640D-01 -0.218613D-01
     36 -0.941653D-04  0.843957D-04  0.594078D-01  0.108504D-03 -0.397634D-04
                6             7             8             9            10 
      6  0.216948D+02
      7 -0.144427D-02  0.113940D+02
      8 -0.394139D-02 -0.250387D-03  0.643730D+01
      9 -0.931609D+01 -0.328052D-02  0.977257D-02  0.216948D+02
     10 -0.127908D-04 -0.575852D+01 -0.340392D+01  0.331239D-02  0.767671D+01
     11 -0.360162D-03 -0.402252D+01 -0.146988D+01 -0.630564D-02  0.214646D+01
     12  0.219958D-01  0.370901D-02 -0.610868D-02 -0.931610D+01 -0.583804D-02
     13 -0.752764D-04  0.426761D+00 -0.369248D+00  0.366512D-03  0.673690D+00
     14  0.158512D-03 -0.265069D+00  0.606201D-01 -0.109834D-03 -0.309733D+00
     15  0.474086D-01  0.299828D-03 -0.142838D-03  0.219947D-01  0.337917D-02
     16  0.299442D-03 -0.198612D+00 -0.393700D-05 -0.782019D-04  0.426825D+00
     17 -0.142620D-03 -0.394996D-05 -0.271235D+00  0.204084D-03  0.369211D+00
     18  0.219949D-01 -0.780956D-04  0.204083D-03  0.474155D-01 -0.107805D-03
     19 -0.201903D-04  0.928652D-01  0.109450D+00 -0.278928D-04  0.632639D-02
     20 -0.293500D-04  0.131549D+00  0.513786D-01 -0.163347D-04  0.172279D-01
     21  0.594081D-01 -0.420359D-04 -0.233786D-04 -0.395833D-01 -0.790389D-05
     22  0.817163D-03  0.754419D-01 -0.880088D-01  0.614369D-04 -0.426047D-01
     23 -0.140875D-02 -0.542571D-01 -0.897503D-01  0.781248D-04 -0.312352D-01
     24 -0.319016D+01  0.398271D-04  0.674862D-04  0.594082D-01  0.190383D-04
     25  0.430420D-04 -0.905489D+00 -0.118502D-03  0.728176D-03  0.131503D-01
     26  0.161490D-04 -0.118414D-03 -0.326639D+01  0.487860D-04  0.123973D+00
     27  0.594081D-01  0.728118D-03  0.487642D-04 -0.319016D+01 -0.941546D-04
     28 -0.351299D-04  0.754560D-01  0.879924D-01 -0.512350D-04 -0.267606D+01
     29 -0.135020D-03  0.542408D-01 -0.897642D-01  0.112789D-03  0.102236D+01
     30 -0.395826D-01 -0.296205D-04  0.123613D-03  0.594081D-01 -0.490488D-03
     31  0.141698D-04  0.928411D-01 -0.109454D+00  0.112227D-03 -0.110046D+00
     32 -0.245367D-04 -0.131553D+00  0.514025D-01 -0.100137D-03  0.191077D-01
     33 -0.348785D-02  0.126308D-03 -0.930474D-04 -0.395831D-01 -0.661644D-04
     34  0.122688D-03  0.361636D-01 -0.198232D-05  0.126386D-04  0.166120D+00
     35 -0.327373D-04 -0.201798D-05 -0.362129D-02  0.000000D+00  0.671452D-01
     36 -0.395830D-01  0.126217D-04  0.000000D+00 -0.348810D-02  0.225303D-04
               11            12            13            14            15 
     11  0.101547D+02
     12  0.807237D-02  0.216948D+02
     13  0.308870D+00  0.298274D-02  0.767627D+01
     14 -0.790211D+01 -0.100297D-02 -0.214621D+01  0.101551D+02
     15 -0.806087D-03 -0.931610D+01 -0.309000D-02  0.670287D-02  0.216948D+02
     16  0.265032D+00 -0.414319D-04 -0.575777D+01  0.402295D+01 -0.144244D-02
     17  0.605573D-01  0.925266D-04  0.340435D+01 -0.147062D+01 -0.393827D-02
     18  0.594653D-04  0.219951D-01 -0.104623D-02 -0.374077D-02 -0.931609D+01
     19  0.172282D-01 -0.791790D-05 -0.425962D-01  0.533569D-01 -0.351292D-04
     20  0.262158D-01 -0.135593D-04  0.312581D-01  0.186839D+00 -0.135021D-03
     21 -0.135266D-04 -0.348787D-02 -0.209785D-04 -0.127963D-03 -0.395826D-01
     22 -0.533341D-01  0.331913D-04  0.632295D-02 -0.172262D-01  0.141577D-04
     23  0.186847D+00 -0.154912D-03 -0.172258D-01  0.262192D-01 -0.245177D-04
     24 -0.161887D-03 -0.395827D-01  0.141396D-04 -0.244719D-04 -0.348784D-02
     25  0.902219D-01 -0.725437D-04  0.166104D+00 -0.892633D-01  0.122684D-03
     26 -0.274599D-01  0.951519D-04 -0.671640D-01 -0.218613D-01 -0.327393D-04
     27  0.843885D-04  0.594079D-01  0.108513D-03 -0.397719D-04 -0.395831D-01
     28  0.102236D+01 -0.490418D-03 -0.110054D+00 -0.528387D-01 -0.202330D-04
     29 -0.149582D+01 -0.758488D-03 -0.190874D-01  0.957470D-01 -0.293747D-04
     30 -0.758643D-03 -0.319016D+01 -0.418142D-04 -0.401218D-04  0.594081D-01
     31  0.528589D-01 -0.877211D-04 -0.267626D+01 -0.102224D+01  0.817007D-03
     32  0.957399D-01 -0.171617D-04 -0.102224D+01 -0.149562D+01 -0.140851D-02
     33 -0.642269D-05  0.594079D-01  0.817138D-03 -0.140875D-02 -0.319016D+01
     34  0.892445D-01  0.833562D-05  0.131287D-01 -0.902260D-01  0.431226D-04
     35 -0.218770D-01  0.100436D-04 -0.123977D+00 -0.274384D-01  0.161786D-04
     36  0.170917D-04 -0.395832D-01  0.647165D-04  0.269230D-04  0.594081D-01
               16            17            18            19            20 
     16  0.113940D+02
     17 -0.248428D-03  0.643730D+01
     18 -0.328242D-02  0.977086D-02  0.216948D+02
     19  0.754561D-01  0.879924D-01 -0.512568D-04  0.270775D+01
     20  0.542409D-01 -0.897642D-01  0.112768D-03 -0.127004D+01  0.124158D+01
     21 -0.296198D-04  0.123603D-03  0.594081D-01  0.674484D-03  0.812695D-03
     22  0.928411D-01 -0.109454D+00  0.112247D-03 -0.500679D-01  0.270487D-02
     23 -0.131553D+00  0.514026D-01 -0.100158D-03 -0.269916D-02  0.686904D-02
     24  0.126329D-03 -0.930684D-04 -0.395832D-01 -0.165171D-04  0.108507D-05
     25  0.361636D-01 -0.195892D-05  0.126661D-04  0.282658D-02  0.737740D-02
     26 -0.197296D-05 -0.362128D-02  0.000000D+00 -0.225172D-02 -0.133482D-03
     27  0.126369D-04  0.000000D+00 -0.348809D-02  0.254331D-05  0.203573D-05
     28  0.928653D-01  0.109450D+00 -0.278690D-04  0.252548D-02  0.527617D-02
     29  0.131549D+00  0.513785D-01 -0.163133D-04  0.527616D-02  0.861640D-02
     30 -0.420163D-04 -0.233644D-04 -0.395833D-01 -0.186125D-05 -0.526201D-05
     31  0.754419D-01 -0.880088D-01  0.614058D-04 -0.161299D-02 -0.481432D-02
     32 -0.542571D-01 -0.897504D-01  0.781780D-04  0.481489D-02  0.430616D-02
     33  0.398261D-04  0.674873D-04  0.594083D-01 -0.339332D-05 -0.468265D-05
     34 -0.905489D+00 -0.120123D-03  0.727593D-03 -0.736275D-02  0.219505D-01
     35 -0.119786D-03 -0.326639D+01  0.487753D-04  0.273546D-01 -0.358356D-01
     36  0.727679D-03  0.487526D-04 -0.319016D+01 -0.221631D-04  0.345671D-04
               21            22            23            24            25 
     21  0.314302D+01
     22 -0.199708D-04  0.270800D+01
     23  0.000000D+00  0.126990D+01  0.124133D+01
     24  0.722994D-02 -0.950684D-03  0.162036D-02  0.314302D+01
     25 -0.362236D-05 -0.736771D-02 -0.219534D-01  0.941331D-05  0.508237D+00
     26 -0.103249D-05 -0.273575D-01 -0.358307D-01  0.188504D-04  0.147093D-03
     27 -0.626763D-03  0.128597D-04  0.205751D-04  0.722980D-02 -0.839696D-03
     28 -0.186224D-05 -0.161299D-02  0.481490D-02 -0.339471D-05 -0.736276D-02
     29 -0.526331D-05 -0.481431D-02  0.430616D-02 -0.468324D-05  0.219506D-01
     30 -0.223051D-02  0.276747D-05 -0.162078D-05 -0.626750D-03 -0.187044D-04
     31  0.276874D-05  0.252443D-02 -0.527556D-02  0.488764D-05  0.282610D-02
     32 -0.162239D-05 -0.527556D-02  0.861744D-02 -0.861789D-05 -0.737769D-02
     33 -0.626746D-03  0.488702D-05 -0.861706D-05 -0.223050D-02  0.581373D-05
     34 -0.187051D-04  0.282609D-02 -0.737770D-02  0.581510D-05  0.116628D-01
     35  0.362880D-04  0.225141D-02 -0.132957D-03  0.000000D+00  0.000000D+00
     36  0.722977D-02  0.000000D+00 -0.266531D-05 -0.626759D-03  0.442526D-05
               26            27            28            29            30 
     26  0.344110D+01
     27 -0.190891D-03  0.314302D+01
     28  0.273546D-01 -0.221607D-04  0.270775D+01
     29 -0.358356D-01  0.345598D-04 -0.127004D+01  0.124158D+01
     30  0.362836D-04  0.722980D-02  0.674195D-03  0.812232D-03  0.314302D+01
     31  0.225141D-02  0.000000D+00 -0.500678D-01  0.270487D-02 -0.199654D-04
     32 -0.132963D-03 -0.266690D-05 -0.269917D-02  0.686902D-02  0.000000D+00
     33  0.000000D+00 -0.626761D-03 -0.165150D-04  0.108496D-05  0.722992D-02
     34  0.000000D+00  0.442690D-05  0.282659D-02  0.737740D-02 -0.362012D-05
     35 -0.521075D-03 -0.109575D-05 -0.225172D-02 -0.133489D-03 -0.103214D-05
     36 -0.109584D-05 -0.223058D-02  0.254139D-05  0.203419D-05 -0.626761D-03
               31            32            33            34            35 
     31  0.270800D+01
     32  0.126990D+01  0.124133D+01
     33 -0.950480D-03  0.162004D-02  0.314302D+01
     34 -0.736772D-02 -0.219534D-01  0.940962D-05  0.508237D+00
     35 -0.273575D-01 -0.358307D-01  0.188432D-04  0.148820D-03  0.344110D+01
     36  0.128555D-04  0.205647D-04  0.722982D-02 -0.839202D-03 -0.190886D-03
               36 
     36  0.314302D+01
 Leave Link  701 at Mon Feb 29 16:28:45 2016, MaxMem= 1610612736 cpu:       1.2
 (Enter /usr/local/gaussian/g09/l702.exe)
 L702 exits ... SP integral derivatives will be done elsewhere.
 Leave Link  702 at Mon Feb 29 16:28:45 2016, MaxMem= 1610612736 cpu:       0.2
 (Enter /usr/local/gaussian/g09/l703.exe)
 Compute integral second derivatives, UseDBF=F ICtDFT=           0.
 Integral derivatives from FoFDir, PRISM(SPDF).
 ICntrl=    100127.
 Calling FoFJK, ICntrl=    100127 FMM=F ISym2X=0 I1Cent= 0 IOpClX= 0 NMat=1 NMatS=1 NMatT=0.
 FoFJK:  IHMeth= 1 ICntrl=100127 DoSepK=F KAlg= 1 I1Cent= 0 FoldK=F
 FoFCou: FMM=F IPFlag=           0 FMFlag=      100000 FMFlg1=         800
         NFxFlg=           0 DoJE=F BraDBF=F KetDBF=F FulRan=T
         Omega=  0.000000  0.000000  1.000000  0.000000  0.000000 ICntrl=  100127 IOpCl=  0
         NMat0=    1 NMatS0=    1 NMatT0=    0 NMatD0=    1 NMtDS0=    0 NMtDT0=    0
         I1Cent=           0 NGrid=           0.
 Symmetry not used in FoFCou.
 FoFCou:  KetSym=F NOpSet=  1 NOpAb=1 NOp=  1.
 FoFCou:  CnvScl= 1.00D+00 Thresh= 1.00D-10
 PrismS was handed  1610507694 working-precision words and   900 shell-pairs
 FoFCou: LinMIO=F DoNuc=F BraDBF=F KetDBF=F HaveP=T PDBF=F HaveZ=T HaveW=F
         NIJTC =       6 NIJTAt=       0 NIJTCD=       0 NIJTT =       6
         IJTBeg=       1 IJTEnd=       6 KLTBeg=       1 KLTEnd=       6
         IPTBeg=       1 IPTEnd=       6 IPTBCv=       1 IPTECv=       6
         IZTBeg=       1 IZTEnd=       6 IZTBCv=       1 IZTECv=       6
         IWTBeg=       7 IWTEnd=       6 IWTBCv=       7 IWTECv=       6
         INTBeg=       1 INTEnd=       0 IFTBCv=       1 IFTECv=       6
 NCel replicated for PrismC:     1
 CoulSu:  IncDef=  1024 NBBP=         405450 NTPThr=   100 NPartT=    6 Incr=         675 LDynOK=F.
 CoulSu:  NPrtUS=   6 ThrOK=T IAlg=1 NPAlg=1 LenDen=           0.
 Enter PrismC: JobTyp=22 DoJE=F Cont=F.
 PrismC:  IPart=     0 DynPar=T LinDyn=F Incr=         675 UseFst=F UseS4=T.
 PrismC was handed   268389617 working-precision words and   900 shell-pairs
 Enter PrismC: JobTyp=22 DoJE=F Cont=F.
 Enter PrismC: JobTyp=22 DoJE=F Cont=F.
 Enter PrismC: JobTyp=22 DoJE=F Cont=F.
 Enter PrismC: JobTyp=22 DoJE=F Cont=F.
 PrismC was handed   268389617 working-precision words and   900 shell-pairs
 PrismC was handed   268389617 working-precision words and   900 shell-pairs
 PrismC was handed   268389617 working-precision words and   900 shell-pairs
 PrismC was handed   268389617 working-precision words and   900 shell-pairs
 Enter PrismC: JobTyp=22 DoJE=F Cont=F.
 PrismC was handed   268389617 working-precision words and   900 shell-pairs
 IPart=  0 NShTot=       59174 NShNF=       59174 NShFF=           0 NBatch=        2701 AvBLen=        21.9
 IPart=  2 NShTot=       60476 NShNF=       60476 NShFF=           0 NBatch=        2811 AvBLen=        21.5
 IPart=  3 NShTot=       56600 NShNF=       56600 NShFF=           0 NBatch=        2572 AvBLen=        22.0
 IPart=  4 NShTot=       68720 NShNF=       68720 NShFF=           0 NBatch=        3088 AvBLen=        22.3
 IPart=  1 NShTot=       60352 NShNF=       60352 NShFF=           0 NBatch=        2501 AvBLen=        24.1
 IPart=  5 NShTot=       63365 NShNF=       63365 NShFF=           0 NBatch=        2814 AvBLen=        22.5
 CoulSu:  NxtVal=         434701.
 ReadGW:  IGet=0 IStart=           1 Next=        7147 LGW=        7146.
 Remaining memory in FofDFT     1535.98 Mw
 Pruned (  99, 590) grid will be used in CalDFT.
 CkSvGd:  ISavGI=        -1 IRadAn=       5 IRASav=       5 ISavGd=        -1.
 CalDSu:  NPrtUS=   6 ThrOK=T IAlg=1 NPAlg=2 DoDPD=T LenP=    8001 LenD1P=           0.
 IPart=  0 IRanGd=          0 ScrnBf=T ScrnGd=T RCrit=4.00D+00 DoMicB=T.
 CutRad = 1000.00    CtRdIn =    0.00    XCrit =  15.00   ICut = 0
 IPart=  3 IRanGd=          0 ScrnBf=T ScrnGd=T RCrit=4.00D+00 DoMicB=T.
 IPart=  4 IRanGd=          0 ScrnBf=T ScrnGd=T RCrit=4.00D+00 DoMicB=T.
 CutRad = 1000.00    CtRdIn =    0.00    XCrit =  15.00   ICut = 0
 CutRad = 1000.00    CtRdIn =    0.00    XCrit =  15.00   ICut = 0
 IPart=  1 IRanGd=          0 ScrnBf=T ScrnGd=T RCrit=4.00D+00 DoMicB=T.
 IPart=  5 IRanGd=          0 ScrnBf=T ScrnGd=T RCrit=4.00D+00 DoMicB=T.
 Pruned (  99, 590) grid will be used in CalDFT.
 IPart=  2 IRanGd=          0 ScrnBf=T ScrnGd=T RCrit=4.00D+00 DoMicB=T.
 CutRad = 1000.00    CtRdIn =    0.00    XCrit =  15.00   ICut = 0
 CutRad = 1000.00    CtRdIn =    0.00    XCrit =  15.00   ICut = 0
 CutRad = 1000.00    CtRdIn =    0.00    XCrit =  15.00   ICut = 0
 Pruned (  99, 590) grid will be used in CalDFT.
 Pruned (  99, 590) grid will be used in CalDFT.
 Pruned (  99, 590) grid will be used in CalDFT.
 Pruned (  99, 590) grid will be used in CalDFT.
 Pruned (  99, 590) grid will be used in CalDFT.
 Pruned (  99, 590) grid will be used in CalDFT.
 Pruned (  99, 590) grid will be used in CalDFT.
 Pruned (  99, 590) grid will be used in CalDFT.
 Pruned (  99, 590) grid will be used in CalDFT.
 Pruned (  99, 590) grid will be used in CalDFT.
 Pruned (  99, 590) grid will be used in CalDFT.
 Pruned (  99, 590) grid will be used in CalDFT.
 Pruned (  99, 590) grid will be used in CalDFT.
 Pruned (  99, 590) grid will be used in CalDFT.
 Pruned (  99, 590) grid will be used in CalDFT.
 Pruned (  99, 590) grid will be used in CalDFT.
 Pruned (  99, 590) grid will be used in CalDFT.
 Pruned (  99, 590) grid will be used in CalDFT.
 Pruned (  99, 590) grid will be used in CalDFT.
 Pruned (  99, 590) grid will be used in CalDFT.
 Pruned (  99, 590) grid will be used in CalDFT.
 Pruned (  99, 590) grid will be used in CalDFT.
 Pruned (  99, 590) grid will be used in CalDFT.
 Pruned (  99, 590) grid will be used in CalDFT.
 Pruned (  99, 590) grid will be used in CalDFT.
 Pruned (  99, 590) grid will be used in CalDFT.
 Pruned (  99, 590) grid will be used in CalDFT.
 Pruned (  99, 590) grid will be used in CalDFT.
 Pruned (  99, 590) grid will be used in CalDFT.
 Pruned (  99, 590) grid will be used in CalDFT.
 Pruned (  99, 590) grid will be used in CalDFT.
 Pruned (  99, 590) grid will be used in CalDFT.
 Pruned (  99, 590) grid will be used in CalDFT.
 Pruned (  99, 590) grid will be used in CalDFT.
 Pruned (  99, 590) grid will be used in CalDFT.
 Pruned (  99, 590) grid will be used in CalDFT.
 Pruned (  99, 590) grid will be used in CalDFT.
 Pruned (  99, 590) grid will be used in CalDFT.
 Pruned (  99, 590) grid will be used in CalDFT.
 Pruned (  99, 590) grid will be used in CalDFT.
 Pruned (  99, 590) grid will be used in CalDFT.
 Pruned (  99, 590) grid will be used in CalDFT.
 Pruned (  99, 590) grid will be used in CalDFT.
 Pruned (  99, 590) grid will be used in CalDFT.
 Pruned (  99, 590) grid will be used in CalDFT.
 Pruned (  99, 590) grid will be used in CalDFT.
 Pruned (  99, 590) grid will be used in CalDFT.
 Pruned (  99, 590) grid will be used in CalDFT.
 Pruned (  99, 590) grid will be used in CalDFT.
 Pruned (  99, 590) grid will be used in CalDFT.
 Pruned (  99, 590) grid will be used in CalDFT.
 Pruned (  99, 590) grid will be used in CalDFT.
 Pruned (  99, 590) grid will be used in CalDFT.
 Pruned (  99, 590) grid will be used in CalDFT.
 Pruned (  99, 590) grid will be used in CalDFT.
 Pruned (  99, 590) grid will be used in CalDFT.
 Pruned (  99, 590) grid will be used in CalDFT.
 Pruned (  99, 590) grid will be used in CalDFT.
 Pruned (  99, 590) grid will be used in CalDFT.
 Pruned (  99, 590) grid will be used in CalDFT.
 Pruned (  99, 590) grid will be used in CalDFT.
 Pruned (  99, 590) grid will be used in CalDFT.
 Pruned (  99, 590) grid will be used in CalDFT.
 Pruned (  99, 590) grid will be used in CalDFT.
 Pruned (  99, 590) grid will be used in CalDFT.
 Pruned (  99, 590) grid will be used in CalDFT.
 Pruned (  99, 590) grid will be used in CalDFT.
 Pruned (  99, 590) grid will be used in CalDFT.
 Pruned (  99, 590) grid will be used in CalDFT.
 Pruned (  99, 590) grid will be used in CalDFT.
 Pruned (  99, 590) grid will be used in CalDFT.
 IPart=  2        39511 of        44528 points in      41 batches and      230 microbatches, Max-NSigAt=      12 Max-NSgAt2=      12
 IPart=  3        40403 of        45104 points in      40 batches and      219 microbatches, Max-NSigAt=      12 Max-NSgAt2=      12
 IPart=  5        39348 of        44972 points in      45 batches and      289 microbatches, Max-NSigAt=      12 Max-NSgAt2=      12
 IPart=  4        41323 of        47080 points in      42 batches and      208 microbatches, Max-NSigAt=      12 Max-NSgAt2=      12
 IPart=  1        40154 of        45536 points in      44 batches and      261 microbatches, Max-NSigAt=      12 Max-NSgAt2=      12
 IPart=  0        40343 of        45012 points in      40 batches and      226 microbatches, Max-NSigAt=      12 Max-NSgAt2=      12
 Polarizability after L703:
                1             2             3 
      1  0.786501D+02
      2  0.175382D-05  0.786479D+02
      3  0.119773D-01 -0.241144D-01  0.409906D+02
 Dipole Derivatives after L703:
                 1             2             3             4             5 
      1  -0.651146D-02  0.656488D-01  0.133051D-05 -0.652402D-02 -0.656409D-01
      2   0.656216D-01  0.693079D-01 -0.114218D-03 -0.656148D-01  0.693205D-01
      3   0.000000D+00 -0.113768D-03 -0.142115D+00  0.848043D-04 -0.156737D-03
                 6             7             8             9            10 
      1   0.849269D-04  0.107180D+00 -0.750513D-05  0.795659D-04 -0.651053D-02
      2  -0.155928D-03 -0.770898D-05 -0.444911D-01 -0.628421D-04  0.656228D-01
      3  -0.142115D+00  0.801905D-04 -0.626694D-04 -0.142105D+00  0.000000D+00
                11            12            13            14            15 
      1   0.656485D-01  0.132435D-05 -0.652491D-02 -0.656411D-01  0.849974D-04
      2   0.693079D-01 -0.114121D-03 -0.656138D-01  0.693202D-01 -0.155999D-03
      3  -0.113722D-03 -0.142115D+00  0.847483D-04 -0.156643D-03 -0.142115D+00
                16            17            18            19            20 
      1   0.107179D+00 -0.745701D-05  0.793467D-04  0.157859D-01 -0.817166D-01
      2  -0.780636D-05 -0.444918D-01 -0.628124D-04 -0.817146D-01 -0.785419D-01
      3   0.802224D-04 -0.626637D-04 -0.142104D+00  0.120736D-04  0.115201D-03
                21            22            23            24            25 
      1   0.120206D-04  0.158022D-01  0.817070D-01 -0.923186D-04 -0.125732D+00
      2   0.115217D-03  0.817052D-01 -0.785581D-01  0.167170D-03  0.943613D-05
      3   0.142115D+00 -0.923954D-04  0.167298D-03  0.142115D+00 -0.852427D-04
                26            27            28            29            30 
      1   0.941801D-05 -0.855086D-04  0.157858D-01 -0.817166D-01  0.120269D-04
      2   0.629630D-01  0.506106D-04 -0.817148D-01 -0.785421D-01  0.115139D-03
      3   0.506439D-04  0.142105D+00  0.120768D-04  0.115175D-03  0.142115D+00
                31            32            33            34            35 
      1   0.158023D-01  0.817069D-01 -0.923610D-04 -0.125732D+00  0.955273D-05
      2   0.817051D-01 -0.785578D-01  0.167193D-03  0.946172D-05  0.629632D-01
      3  -0.923773D-04  0.167249D-03  0.142115D+00 -0.852631D-04  0.506365D-04
                36 
      1  -0.853511D-04
      2   0.505913D-04
      3   0.142105D+00
 Hessian after L703:
                1             2             3             4             5 
      1  0.684053D+00
      2  0.325809D-01  0.721646D+00
      3  0.154633D-03 -0.366444D-03  0.133533D+00
      4 -0.336695D+00 -0.319644D-01 -0.669807D-04  0.684047D+00
      5  0.319852D-01 -0.128964D+00  0.530445D-04 -0.325776D-01  0.721652D+00
      6 -0.108002D-03  0.327572D-04 -0.621873D-01  0.196144D-03 -0.387054D-03
      7 -0.262572D-01 -0.287410D-01  0.769246D-05 -0.180911D+00 -0.121917D+00
      8 -0.754251D-01  0.338701D-01 -0.411051D-04 -0.579629D-01 -0.284775D+00
      9  0.375914D-04 -0.261628D-04  0.720830D-02  0.000000D+00  0.103813D-03
     10 -0.508005D-01  0.285615D-01 -0.321893D-04  0.639490D-01  0.233388D-01
     11  0.285616D-01 -0.178105D-01  0.160393D-04 -0.233509D-01 -0.563120D-01
     12 -0.321828D-04  0.160357D-04 -0.684968D-02  0.330103D-04  0.481170D-04
     13  0.639490D-01 -0.233509D-01  0.330129D-04 -0.508062D-01 -0.285583D-01
     14  0.233388D-01 -0.563119D-01  0.481105D-04 -0.285582D-01 -0.178048D-01
     15  0.311860D-05  0.332252D-04  0.721401D-02  0.422834D-05 -0.208915D-05
     16 -0.180893D+00  0.121907D+00 -0.116046D-03 -0.262467D-01  0.287470D-01
     17  0.579529D-01 -0.284794D+00  0.161270D-03  0.754311D-01  0.338597D-01
     18 -0.749438D-04  0.181470D-03 -0.621781D-01 -0.589707D-04 -0.783377D-05
     19 -0.129689D+00 -0.120395D+00  0.474044D-04 -0.107344D-01 -0.294620D-01
     20 -0.120396D+00 -0.268674D+00  0.110273D-03  0.199713D-02  0.377673D-02
     21  0.474015D-04  0.110257D-03 -0.365245D-01 -0.566657D-05 -0.983929D-05
     22 -0.107316D-01  0.294634D-01 -0.232479D-04 -0.129665D+00  0.120382D+00
     23 -0.199567D-02  0.377400D-02 -0.108725D-05  0.120382D+00 -0.268698D+00
     24 -0.314777D-05  0.894723D-05  0.307185D-02 -0.106674D-03  0.186806D-03
     25  0.701107D-03 -0.325161D-02  0.000000D+00 -0.117469D-01  0.258064D-02
     26 -0.206000D-02 -0.475233D-02  0.695908D-05 -0.288782D-01  0.478759D-02
     27  0.000000D+00  0.658697D-05  0.713720D-02  0.137979D-04  0.000000D+00
     28 -0.802740D-03  0.862977D-03  0.000000D+00 -0.108906D-02  0.309333D-02
     29  0.862789D-03  0.193529D-03  0.000000D+00  0.428524D-02 -0.296235D-02
     30  0.000000D+00  0.000000D+00 -0.633990D-03 -0.536846D-05  0.744679D-05
     31 -0.108980D-02 -0.309351D-02  0.000000D+00 -0.802901D-03 -0.862888D-03
     32 -0.428541D-02 -0.296164D-02  0.510112D-05 -0.862692D-03  0.193714D-03
     33  0.000000D+00  0.548161D-05  0.713747D-02  0.000000D+00  0.000000D+00
     34 -0.117441D-01 -0.257901D-02 -0.306751D-05  0.701617D-03  0.325106D-02
     35  0.288798D-01  0.478497D-02  0.809170D-05  0.205946D-02 -0.475285D-02
     36 -0.232390D-04 -0.190072D-05  0.307225D-02 -0.335912D-05  0.865624D-05
                6             7             8             9            10 
      6  0.133533D+00
      7  0.403337D-04  0.740426D+00
      8  0.124190D-03 -0.405569D-05  0.665308D+00
      9 -0.621782D-01  0.193398D-03 -0.340864D-03  0.133516D+00
     10  0.311806D-05 -0.180893D+00  0.579529D-01 -0.749320D-04  0.684053D+00
     11  0.332218D-04  0.121907D+00 -0.284794D+00  0.181438D-03  0.325810D-01
     12  0.721402D-02 -0.116026D-03  0.161223D-03 -0.621782D-01  0.154602D-03
     13  0.423151D-05 -0.262468D-01  0.754311D-01 -0.589681D-04 -0.336695D+00
     14 -0.208679D-05  0.287470D-01  0.338597D-01 -0.783451D-05  0.319852D-01
     15 -0.684967D-02 -0.289885D-04  0.694824D-05  0.720824D-02 -0.107968D-03
     16 -0.289950D-04 -0.134106D-02 -0.329952D-05  0.172964D-05 -0.262571D-01
     17  0.694585D-05 -0.330505D-05 -0.672810D-01  0.387541D-04 -0.754251D-01
     18  0.720824D-02  0.172927D-05  0.387505D-04 -0.684250D-02  0.375914D-04
     19  0.144633D-04 -0.568871D-02  0.163023D-02 -0.513025D-05 -0.802733D-03
     20  0.000000D+00  0.438653D-03  0.163733D-02  0.366002D-05  0.862790D-03
     21  0.307188D-02 -0.435913D-05  0.403976D-05  0.713711D-02  0.000000D+00
     22 -0.106695D-03  0.120418D-01 -0.151465D-01  0.125508D-04 -0.108980D-02
     23  0.186854D-03  0.163124D-01 -0.189996D-01  0.193125D-04 -0.428543D-02
     24 -0.365246D-01 -0.758215D-05  0.932137D-05  0.307040D-02  0.000000D+00
     25 -0.636684D-05 -0.338175D+00  0.139142D-04 -0.961226D-04 -0.117442D-01
     26 -0.103057D-04  0.139008D-04 -0.601624D-01  0.151493D-04  0.288799D-01
     27  0.307228D-02 -0.961132D-04  0.150967D-04 -0.365142D-01 -0.232325D-04
     28 -0.459876D-05  0.120417D-01  0.151434D-01 -0.682964D-05 -0.129689D+00
     29  0.783097D-05 -0.163155D-01 -0.189996D-01  0.892845D-05 -0.120396D+00
     30  0.713749D-02  0.132966D-04  0.189758D-04  0.307040D-02  0.473832D-04
     31  0.000000D+00 -0.568891D-02 -0.162950D-02 -0.304315D-05 -0.107316D-01
     32  0.000000D+00 -0.437925D-03  0.163753D-02  0.338098D-05 -0.199570D-02
     33 -0.633992D-03 -0.380634D-05  0.300039D-05  0.713710D-02 -0.314160D-05
     34 -0.412991D-05  0.691962D-03  0.000000D+00  0.000000D+00  0.701075D-03
     35  0.826887D-05  0.000000D+00 -0.130086D-02  0.000000D+00 -0.206001D-02
     36  0.713719D-02  0.000000D+00  0.000000D+00 -0.634014D-03  0.000000D+00
               11            12            13            14            15 
     11  0.721646D+00
     12 -0.366348D-03  0.133533D+00
     13 -0.319643D-01 -0.669476D-04  0.684047D+00
     14 -0.128964D+00  0.530328D-04 -0.325776D-01  0.721652D+00
     15  0.327462D-04 -0.621873D-01  0.196127D-03 -0.386939D-03  0.133533D+00
     16 -0.287410D-01  0.768092D-05 -0.180911D+00 -0.121917D+00  0.403005D-04
     17  0.338701D-01 -0.411011D-04 -0.579630D-01 -0.284776D+00  0.124116D-03
     18 -0.261551D-04  0.720830D-02  0.000000D+00  0.103747D-03 -0.621781D-01
     19  0.862985D-03  0.000000D+00 -0.108906D-02  0.309332D-02 -0.459949D-05
     20  0.193535D-03  0.000000D+00  0.428523D-02 -0.296236D-02  0.783353D-05
     21  0.000000D+00 -0.633992D-03 -0.536742D-05  0.744876D-05  0.713748D-02
     22 -0.309352D-02  0.000000D+00 -0.802910D-03 -0.862879D-03  0.000000D+00
     23 -0.296162D-02  0.510379D-05 -0.862689D-03  0.193706D-03  0.000000D+00
     24  0.548395D-05  0.713748D-02  0.000000D+00  0.000000D+00 -0.633990D-03
     25 -0.257899D-02 -0.306915D-05  0.701644D-03  0.325106D-02 -0.413024D-05
     26  0.478496D-02  0.809412D-05  0.205945D-02 -0.475286D-02  0.826829D-05
     27 -0.190419D-05  0.307228D-02 -0.336041D-05  0.865205D-05  0.713720D-02
     28 -0.120395D+00  0.473866D-04 -0.107344D-01 -0.294620D-01  0.144575D-04
     29 -0.268674D+00  0.110227D-03  0.199710D-02  0.377673D-02  0.000000D+00
     30  0.110206D-03 -0.365246D-01 -0.566858D-05 -0.983672D-05  0.307187D-02
     31  0.294634D-01 -0.232433D-04 -0.129665D+00  0.120382D+00 -0.106678D-03
     32  0.377403D-02 -0.108662D-05  0.120382D+00 -0.268698D+00  0.186814D-03
     33  0.894229D-05  0.307184D-02 -0.106662D-03  0.186772D-03 -0.365246D-01
     34 -0.325162D-02  0.000000D+00 -0.117468D-01  0.258067D-02 -0.636458D-05
     35 -0.475232D-02  0.695638D-05 -0.288782D-01  0.478759D-02 -0.103020D-04
     36  0.658266D-05  0.713719D-02  0.137892D-04  0.000000D+00  0.307227D-02
               16            17            18            19            20 
     16  0.740427D+00
     17 -0.414968D-05  0.665308D+00
     18  0.193406D-03 -0.340831D-03  0.133515D+00
     19  0.120417D-01  0.151434D-01 -0.683120D-05  0.134055D+00
     20 -0.163154D-01 -0.189995D-01  0.893059D-05  0.130001D+00  0.284130D+00
     21  0.133020D-04  0.189754D-04  0.307038D-02 -0.486443D-04 -0.124194D-03
     22 -0.568891D-02 -0.162951D-02 -0.304336D-05  0.106521D-02 -0.396627D-03
     23 -0.437933D-03  0.163754D-02  0.338244D-05  0.396612D-03  0.872821D-03
     24 -0.380807D-05  0.299649D-05  0.713710D-02  0.135213D-05 -0.323119D-05
     25  0.691938D-03  0.000000D+00  0.000000D+00 -0.686437D-03  0.191274D-03
     26  0.000000D+00 -0.130087D-02  0.000000D+00 -0.151972D-02  0.806679D-04
     27  0.000000D+00  0.000000D+00 -0.634010D-03  0.000000D+00  0.000000D+00
     28 -0.568871D-02  0.163024D-02 -0.512835D-05  0.143554D-03 -0.126087D-03
     29  0.438663D-03  0.163733D-02  0.365820D-05 -0.126087D-03 -0.202357D-05
     30 -0.435746D-05  0.404234D-05  0.713710D-02  0.000000D+00  0.000000D+00
     31  0.120418D-01 -0.151465D-01  0.125488D-04  0.464110D-03 -0.855580D-03
     32  0.163123D-01 -0.189996D-01  0.193103D-04  0.855426D-03 -0.106982D-02
     33 -0.757612D-05  0.931454D-05  0.307039D-02  0.000000D+00  0.000000D+00
     34 -0.338175D+00  0.140052D-04 -0.960860D-04  0.921036D-03  0.313323D-03
     35  0.140128D-04 -0.601623D-01  0.151459D-04 -0.479971D-03  0.101729D-02
     36 -0.960597D-04  0.150928D-04 -0.365142D-01  0.186534D-05 -0.309808D-05
               21            22            23            24            25 
     21  0.254575D-01
     22  0.185520D-05  0.134029D+00
     23 -0.298021D-05 -0.129986D+00  0.284156D+00
     24 -0.397759D-02  0.117761D-03 -0.206885D-03  0.254576D-01
     25  0.000000D+00  0.921053D-03 -0.313314D-03  0.175708D-05  0.359177D+00
     26  0.000000D+00  0.479979D-03  0.101728D-02 -0.304162D-05 -0.150155D-04
     27  0.243481D-03  0.125065D-05 -0.329910D-05 -0.397788D-02  0.106333D-03
     28  0.000000D+00  0.464110D-03  0.855428D-03  0.000000D+00  0.921037D-03
     29  0.000000D+00 -0.855583D-03 -0.106983D-02  0.000000D+00  0.313325D-03
     30 -0.124728D-02  0.000000D+00  0.111403D-05  0.243420D-03  0.136779D-05
     31  0.000000D+00  0.143578D-03  0.126072D-03  0.000000D+00 -0.686302D-03
     32  0.111438D-05  0.126072D-03 -0.204890D-05  0.000000D+00 -0.191198D-03
     33  0.243423D-03  0.000000D+00  0.000000D+00 -0.124728D-02  0.000000D+00
     34  0.136713D-05 -0.686301D-03 -0.191198D-03  0.000000D+00 -0.748699D-04
     35 -0.335414D-05  0.151979D-02  0.805363D-04  0.000000D+00  0.000000D+00
     36 -0.397788D-02 -0.127050D-05  0.000000D+00  0.243482D-03  0.000000D+00
               26            27            28            29            30 
     26  0.589837D-01
     27 -0.214654D-04  0.254454D-01
     28 -0.479967D-03  0.186535D-05  0.134055D+00
     29  0.101729D-02 -0.309693D-05  0.130001D+00  0.284130D+00
     30 -0.335408D-05 -0.397788D-02 -0.486232D-04 -0.124145D-03  0.254575D-01
     31  0.151979D-02 -0.127013D-05  0.106521D-02 -0.396630D-03  0.185515D-05
     32  0.805369D-04  0.000000D+00  0.396613D-03  0.872819D-03 -0.297924D-05
     33  0.000000D+00  0.243481D-03  0.135176D-05 -0.322999D-05 -0.397759D-02
     34  0.000000D+00  0.000000D+00 -0.686435D-03  0.191274D-03  0.000000D+00
     35  0.216360D-03  0.000000D+00 -0.151972D-02  0.806681D-04  0.000000D+00
     36  0.000000D+00 -0.124732D-02  0.000000D+00  0.000000D+00  0.243483D-03
               31            32            33            34            35 
     31  0.134029D+00
     32 -0.129986D+00  0.284156D+00
     33  0.117741D-03 -0.206842D-03  0.254576D-01
     34  0.921055D-03 -0.313310D-03  0.175650D-05  0.359177D+00
     35  0.479977D-03  0.101728D-02 -0.304088D-05 -0.151059D-04  0.589837D-01
     36  0.125053D-05 -0.329810D-05 -0.397787D-02  0.106294D-03 -0.214626D-04
               36 
     36  0.254454D-01
 Leave Link  703 at Mon Feb 29 16:29:19 2016, MaxMem= 1610612736 cpu:     201.1
 (Enter /usr/local/gaussian/g09/l716.exe)
 FrcOut:
 IF    =  2082 IFX   =  2136 IFXYZ =  2172
 IFFX  =  2208 IFFFX =  2874 IFLen =    54
 IFFLen=   666 IFFFLn=     0 IEDerv=  2874
 LEDerv=  1781 IFroze=  4659 ICStrt= 33840
 Dipole        = 1.69662594D-06-1.66874045D-07 1.32301542D-07
 DipoleDeriv   =-6.51146270D-03 6.56216011D-02 5.70618260D-07
                 6.56488054D-02 6.93079415D-02-1.13768287D-04
                 1.33051417D-06-1.14217675D-04-1.42114799D-01
                -6.52402338D-03-6.56148390D-02 8.48042846D-05
                -6.56408526D-02 6.93205469D-02-1.56737461D-04
                 8.49268574D-05-1.55928087D-04-1.42115348D-01
                 1.07179968D-01-7.70897720D-06 8.01905099D-05
                -7.50512844D-06-4.44910834D-02-6.26694205D-05
                 7.95659458D-05-6.28420505D-05-1.42105104D-01
                -6.51052997D-03 6.56227786D-02 5.91973102D-07
                 6.56485261D-02 6.93078962D-02-1.13722294D-04
                 1.32435208D-06-1.14121385D-04-1.42115188D-01
                -6.52491460D-03-6.56138128D-02 8.47483310D-05
                -6.56411026D-02 6.93201707D-02-1.56642664D-04
                 8.49974152D-05-1.55999337D-04-1.42114796D-01
                 1.07178549D-01-7.80636370D-06 8.02223726D-05
                -7.45700727D-06-4.44917578D-02-6.26637129D-05
                 7.93467498D-05-6.28123929D-05-1.42104166D-01
                 1.57859249D-02-8.17146173D-02 1.20735715D-05
                -8.17166040D-02-7.85419169D-02 1.15200995D-04
                 1.20206354D-05 1.15217297D-04 1.42114662D-01
                 1.58022367D-02 8.17051579D-02-9.23953956D-05
                 8.17069682D-02-7.85581223D-02 1.67297950D-04
                -9.23185673D-05 1.67170274D-04 1.42114680D-01
                -1.25732208D-01 9.43613344D-06-8.52426680D-05
                 9.41800965D-06 6.29629802D-02 5.06439149D-05
                -8.55086373D-05 5.06105886D-05 1.42105419D-01
                 1.57857549D-02-8.17147887D-02 1.20768196D-05
                -8.17166287D-02-7.85420719D-02 1.15175050D-04
                 1.20269042D-05 1.15138666D-04 1.42114703D-01
                 1.58023318D-02 8.17051377D-02-9.23772597D-05
                 8.17068797D-02-7.85577569D-02 1.67249419D-04
                -9.23610387D-05 1.67192757D-04 1.42114621D-01
                -1.25731627D-01 9.46172294D-06-8.52631450D-05
                 9.55273455D-06 6.29631739D-02 5.06364948D-05
                -8.53511305D-05 5.05913410D-05 1.42105316D-01
 Polarizability= 7.86500933D+01 1.75381910D-06 7.86479389D+01
                 1.19773103D-02-2.41143950D-02 4.09906038D+01
 VibFq2-Diag1:  N=     36 IV=          13 MDV=  1610574160 NE2=    44738170
 Full mass-weighted force constant matrix:
 Low frequencies ---   -8.2840   -6.7002   -6.6377   -0.0008   -0.0007   -0.0007
 Low frequencies ---  412.1042  412.1306  619.9258
 OrtVCM:  Ph=1 IPass= 1 DotMx1= 0.00D+00
 OrtVCM:  IS=    1 I=    1 IndO=    1 Dot= 1.00D+00 DotN= 1.00D+00 ElMax1= 3.92D-01 ElMax1N= 3.92D-01
 OrtVCM:  Ph=2 NNew=    0 IAdd=    2 IPass= 1 DotMx2= 0.00D+00
 OrtVCM:  IS=    1 I=    2 IndO=    2 Dot= 1.00D+00 DotN= 1.00D+00 ElMax1= 3.92D-01 ElMax1N= 3.92D-01
 OrtVCM:  Ph=2 NNew=    0 IAdd=    3 IPass= 1 DotMx2= 0.00D+00
 OrtVCM:  IS=    1 I=    3 IndO=    3 Dot= 1.00D+00 DotN= 1.00D+00 ElMax1= 3.92D-01 ElMax1N= 3.92D-01
 OrtVCM:  Ph=2 NNew=    0 IAdd=    4 IPass= 1 DotMx2= 2.22D-16
 OrtVCM:  IS=    1 I=    4 IndO=    4 Dot= 1.00D+00 DotN= 1.00D+00 ElMax1= 4.73D-01 ElMax1N= 4.73D-01
 OrtVCM:  Ph=2 NNew=    0 IAdd=    5 IPass= 1 DotMx2= 3.47D-16
 OrtVCM:  IS=    1 I=    5 IndO=    5 Dot= 1.00D+00 DotN= 1.00D+00 ElMax1= 5.09D-01 ElMax1N= 5.09D-01
 OrtVCM:  Ph=2 NNew=    0 IAdd=    6 IPass= 1 DotMx2= 2.07D-16
 OrtVCM:  IS=    1 I=    6 IndO=    6 Dot= 1.00D+00 DotN= 1.00D+00 ElMax1= 3.63D-01 ElMax1N= 3.63D-01
 OrtVCM:  Ph=1 IPass= 1 DotMx1= 5.09D-01
 OrtVCM:  Ph=1 IPass= 2 DotMx1= 2.67D-16
 OrtVCM:  IS=    1 I=    1 IndO=    7 Dot= 7.47D-01 DotN= 7.47D-01 ElMax1= 7.47D-01 ElMax1N= 7.47D-01
 OrtVCM:  Ph=2 NNew=    0 IAdd=    2 IPass= 1 DotMx2= 6.60D-02
 OrtVCM:  Ph=2 NNew=    0 IAdd=    2 IPass= 2 DotMx2= 1.73D-17
 OrtVCM:  IS=    1 I=    2 IndO=    8 Dot= 8.09D-01 DotN= 8.09D-01 ElMax1= 8.09D-01 ElMax1N= 8.09D-01
 OrtVCM:  Ph=2 NNew=    0 IAdd=    3 IPass= 1 DotMx2= 1.45D-04
 OrtVCM:  Ph=2 NNew=    0 IAdd=    3 IPass= 2 DotMx2= 1.95D-20
 OrtVCM:  IS=    1 I=    3 IndO=    9 Dot= 5.83D-01 DotN= 5.83D-01 ElMax1= 5.83D-01 ElMax1N= 5.83D-01
 OrtVCM:  Ph=2 NNew=    0 IAdd=    4 IPass= 1 DotMx2= 2.92D-01
 OrtVCM:  Ph=2 NNew=    0 IAdd=    4 IPass= 2 DotMx2= 2.45D-16
 OrtVCM:  IS=    1 I=    4 IndO=   10 Dot= 6.55D-01 DotN= 6.55D-01 ElMax1= 6.55D-01 ElMax1N= 6.55D-01
 OrtVCM:  Ph=2 NNew=    0 IAdd=    5 IPass= 1 DotMx2= 1.29D-01
 OrtVCM:  Ph=2 NNew=    0 IAdd=    5 IPass= 2 DotMx2= 4.25D-17
 OrtVCM:  IS=    1 I=    5 IndO=   11 Dot= 7.86D-01 DotN= 7.86D-01 ElMax1= 7.86D-01 ElMax1N= 7.86D-01
 OrtVCM:  Ph=2 NNew=    0 IAdd=    6 IPass= 1 DotMx2= 3.74D-01
 OrtVCM:  Ph=2 NNew=    0 IAdd=    6 IPass= 2 DotMx2= 7.81D-17
 OrtVCM:  IS=    1 I=    6 IndO=   12 Dot= 4.43D-01 DotN= 4.43D-01 ElMax1= 4.43D-01 ElMax1N= 4.43D-01
 OrtVCM:  Ph=2 NNew=    0 IAdd=    7 IPass= 1 DotMx2= 2.56D-01
 OrtVCM:  Ph=2 NNew=    0 IAdd=    7 IPass= 2 DotMx2= 1.25D-16
 OrtVCM:  IS=    1 I=    7 IndO=   13 Dot= 7.48D-01 DotN= 7.48D-01 ElMax1= 7.48D-01 ElMax1N= 7.48D-01
 OrtVCM:  Ph=2 NNew=    0 IAdd=    8 IPass= 1 DotMx2= 2.87D-01
 OrtVCM:  Ph=2 NNew=    0 IAdd=    8 IPass= 2 DotMx2= 1.16D-16
 OrtVCM:  IS=    1 I=    8 IndO=   14 Dot= 5.67D-01 DotN= 5.67D-01 ElMax1= 5.67D-01 ElMax1N= 5.67D-01
 OrtVCM:  Ph=2 NNew=    0 IAdd=    9 IPass= 1 DotMx2= 4.45D-01
 OrtVCM:  Ph=2 NNew=    0 IAdd=    9 IPass= 2 DotMx2= 2.26D-17
 OrtVCM:  IS=    1 I=    9 IndO=   15 Dot= 3.84D-01 DotN= 3.84D-01 ElMax1= 3.84D-01 ElMax1N= 3.84D-01
 OrtVCM:  Ph=2 NNew=    0 IAdd=   10 IPass= 1 DotMx2= 2.13D-01
 OrtVCM:  Ph=2 NNew=    0 IAdd=   10 IPass= 2 DotMx2= 1.21D-16
 OrtVCM:  IS=    1 I=   10 IndO=   16 Dot= 6.75D-01 DotN= 6.75D-01 ElMax1= 6.75D-01 ElMax1N= 6.75D-01
 OrtVCM:  Ph=2 NNew=    0 IAdd=   11 IPass= 1 DotMx2= 4.35D-01
 OrtVCM:  Ph=2 NNew=    0 IAdd=   11 IPass= 2 DotMx2= 1.20D-16
 OrtVCM:  IS=    1 I=   11 IndO=   17 Dot= 5.25D-01 DotN= 5.25D-01 ElMax1= 5.25D-01 ElMax1N= 5.25D-01
 OrtVCM:  Ph=2 NNew=    0 IAdd=   12 IPass= 1 DotMx2= 4.20D-01
 OrtVCM:  Ph=2 NNew=    0 IAdd=   12 IPass= 2 DotMx2= 1.89D-16
 OrtVCM:  IS=    1 I=   12 IndO=   18 Dot= 3.84D-01 DotN= 3.84D-01 ElMax1= 3.84D-01 ElMax1N= 3.84D-01
 OrtVCM:  Ph=2 NNew=    0 IAdd=   13 IPass= 1 DotMx2= 3.96D-01
 OrtVCM:  Ph=2 NNew=    0 IAdd=   13 IPass= 2 DotMx2= 2.17D-16
 OrtVCM:  IS=    1 I=   13 IndO=   19 Dot= 4.88D-01 DotN= 4.88D-01 ElMax1= 4.88D-01 ElMax1N= 4.88D-01
 OrtVCM:  Ph=2 NNew=    0 IAdd=   14 IPass= 1 DotMx2= 3.22D-01
 OrtVCM:  Ph=2 NNew=    0 IAdd=   14 IPass= 2 DotMx2= 1.60D-16
 OrtVCM:  IS=    1 I=   14 IndO=   20 Dot= 5.96D-01 DotN= 5.96D-01 ElMax1= 5.96D-01 ElMax1N= 5.96D-01
 OrtVCM:  Ph=2 NNew=    0 IAdd=   15 IPass= 1 DotMx2= 4.18D-01
 OrtVCM:  Ph=2 NNew=    0 IAdd=   15 IPass= 2 DotMx2= 7.46D-17
 OrtVCM:  IS=    1 I=   15 IndO=   21 Dot= 3.80D-01 DotN= 3.80D-01 ElMax1= 3.80D-01 ElMax1N= 3.80D-01
 OrtVCM:  Ph=2 NNew=    0 IAdd=   16 IPass= 1 DotMx2= 4.64D-01
 OrtVCM:  Ph=2 NNew=    0 IAdd=   16 IPass= 2 DotMx2= 2.35D-16
 OrtVCM:  IS=    1 I=   16 IndO=   22 Dot= 3.35D-01 DotN= 3.35D-01 ElMax1= 3.35D-01 ElMax1N= 3.35D-01
 OrtVCM:  Ph=2 NNew=    0 IAdd=   17 IPass= 1 DotMx2= 4.91D-01
 OrtVCM:  Ph=2 NNew=    0 IAdd=   17 IPass= 2 DotMx2= 1.35D-16
 OrtVCM:  IS=    1 I=   17 IndO=   23 Dot= 2.77D-01 DotN= 2.77D-01 ElMax1= 2.77D-01 ElMax1N= 2.77D-01
 OrtVCM:  Ph=2 NNew=    0 IAdd=   18 IPass= 1 DotMx2= 3.80D-01
 OrtVCM:  Ph=2 NNew=    0 IAdd=   18 IPass= 2 DotMx2= 3.40D-16
 OrtVCM:  IS=    1 I=   18 IndO=   24 Dot= 2.36D-01 DotN= 2.36D-01 ElMax1= 2.88D-01 ElMax1N= 2.88D-01
 OrtVCM:  Ph=2 NNew=    0 IAdd=   19 IPass= 1 DotMx2= 3.33D-01
 OrtVCM:  Ph=2 NNew=    0 IAdd=   19 IPass= 2 DotMx2= 8.09D-17
 OrtVCM:  IS=    1 I=   19 IndO=   25 Dot= 7.08D-01 DotN= 7.08D-01 ElMax1= 7.08D-01 ElMax1N= 7.08D-01
 OrtVCM:  Ph=2 NNew=    0 IAdd=   20 IPass= 1 DotMx2= 3.88D-01
 OrtVCM:  Ph=2 NNew=    0 IAdd=   20 IPass= 2 DotMx2= 1.10D-16
 OrtVCM:  IS=    1 I=   20 IndO=   26 Dot= 7.84D-01 DotN= 7.84D-01 ElMax1= 7.84D-01 ElMax1N= 7.84D-01
 OrtVCM:  Ph=2 NNew=    0 IAdd=   21 IPass= 1 DotMx2= 4.36D-01
 OrtVCM:  Ph=2 NNew=    0 IAdd=   21 IPass= 2 DotMx2= 3.02D-16
 OrtVCM:  IS=    1 I=   21 IndO=   27 Dot= 5.00D-01 DotN= 5.00D-01 ElMax1= 5.00D-01 ElMax1N= 5.00D-01
 OrtVCM:  Ph=2 NNew=    0 IAdd=   22 IPass= 1 DotMx2= 3.47D-01
 OrtVCM:  Ph=2 NNew=    0 IAdd=   22 IPass= 2 DotMx2= 1.13D-16
 OrtVCM:  IS=    1 I=   22 IndO=   28 Dot= 5.75D-01 DotN= 5.75D-01 ElMax1= 5.75D-01 ElMax1N= 5.75D-01
 OrtVCM:  Ph=2 NNew=    0 IAdd=   23 IPass= 1 DotMx2= 2.27D-01
 OrtVCM:  Ph=2 NNew=    0 IAdd=   23 IPass= 2 DotMx2= 8.90D-17
 OrtVCM:  IS=    1 I=   23 IndO=   29 Dot= 7.54D-01 DotN= 7.54D-01 ElMax1= 7.54D-01 ElMax1N= 7.54D-01
 OrtVCM:  Ph=2 NNew=    0 IAdd=   24 IPass= 1 DotMx2= 4.71D-01
 OrtVCM:  Ph=2 NNew=    0 IAdd=   24 IPass= 2 DotMx2= 2.29D-16
 OrtVCM:  IS=    1 I=   24 IndO=   30 Dot= 2.78D-01 DotN= 2.78D-01 ElMax1= 3.33D-01 ElMax1N= 3.33D-01
 OrtVCM:  Ph=2 NNew=    0 IAdd=   25 IPass= 1 DotMx2= 3.33D-01
 OrtVCM:  Ph=2 NNew=    0 IAdd=   25 IPass= 2 DotMx2= 1.15D-16
 OrtVCM:  IS=    1 I=   25 IndO=   31 Dot= 6.92D-01 DotN= 6.92D-01 ElMax1= 6.92D-01 ElMax1N= 6.92D-01
 OrtVCM:  Ph=2 NNew=    0 IAdd=   26 IPass= 1 DotMx2= 3.51D-01
 OrtVCM:  Ph=2 NNew=    0 IAdd=   26 IPass= 2 DotMx2= 1.86D-16
 OrtVCM:  IS=    1 I=   26 IndO=   32 Dot= 4.17D-01 DotN= 4.17D-01 ElMax1= 4.17D-01 ElMax1N= 4.17D-01
 OrtVCM:  Ph=2 NNew=    0 IAdd=   27 IPass= 1 DotMx2= 6.32D-01
 OrtVCM:  Ph=2 NNew=    0 IAdd=   27 IPass= 2 DotMx2= 2.34D-16
 OrtVCM:  IS=    1 I=   27 IndO=   33 Dot= 1.00D-01 DotN= 1.00D-01 ElMax1= 2.00D-01 ElMax1N= 2.00D-01
 OrtVCM:  Ph=2 NNew=    0 IAdd=   28 IPass= 1 DotMx2= 3.33D-01
 OrtVCM:  Ph=2 NNew=    0 IAdd=   28 IPass= 2 DotMx2= 8.05D-17
 OrtVCM:  IS=    1 I=   28 IndO=   34 Dot= 6.17D-01 DotN= 6.17D-01 ElMax1= 6.17D-01 ElMax1N= 6.17D-01
 OrtVCM:  Ph=2 NNew=    0 IAdd=   29 IPass= 1 DotMx2= 6.46D-01
 OrtVCM:  Ph=2 NNew=    0 IAdd=   29 IPass= 2 DotMx2= 1.19D-16
 OrtVCM:  IS=    1 I=   29 IndO=   35 Dot= 2.16D-01 DotN= 2.16D-01 ElMax1= 2.43D-01 ElMax1N= 2.43D-01
 OrtVCM:  Ph=2 NNew=    0 IAdd=   30 IPass= 1 DotMx2= 6.32D-01
 OrtVCM:  Ph=2 NNew=    0 IAdd=   30 IPass= 2 DotMx2= 2.27D-16
 OrtVCM:  IS=    1 I=   30 IndO=    0 Dot= 3.31D-31 DotN= 3.31D-31 ElMax1= 3.39D-16 ElMax1N= 3.39D-16
 SchOr2:  IPass= 1 Test2A= 1.00D-01 IOff=     0 NDo=    30 NNew=    29
 OrtVCM:  Ph=1 IPass= 1 DotMx1= 5.03D-01
 OrtVCM:  Ph=1 IPass= 2 DotMx1= 8.74D-16
 OrtVCM:  IS=    1 I=    1 IndO=   36 Dot= 1.25D-01 DotN= 1.25D-01 ElMax1= 2.17D-01 ElMax1N= 2.17D-01
[...]
    R8        2.64352   0.00000   0.00000   0.00000   0.00000   2.64352
    R9        2.05465   0.00000   0.00000   0.00000   0.00000   2.05465
   R10        2.64352   0.00000   0.00000   0.00000   0.00000   2.64352
   R11        2.05465   0.00000   0.00000   0.00000   0.00000   2.05465
   R12        2.05465   0.00000   0.00000   0.00000   0.00000   2.05465
    A1        2.09440   0.00000   0.00000   0.00000   0.00000   2.09440
    A2        2.09440   0.00000   0.00000   0.00000   0.00000   2.09440
    A3        2.09439   0.00000   0.00000   0.00000   0.00000   2.09439
    A4        2.09439   0.00000   0.00000   0.00000   0.00000   2.09440
    A5        2.09440   0.00000   0.00000   0.00000   0.00000   2.09440
    A6        2.09439   0.00000   0.00000   0.00000   0.00000   2.09439
    A7        2.09440   0.00000   0.00000   0.00000   0.00000   2.09440
    A8        2.09440   0.00000   0.00000   0.00000   0.00000   2.09440
    A9        2.09440   0.00000   0.00000   0.00000   0.00000   2.09440
   A10        2.09440   0.00000   0.00000   0.00000   0.00000   2.09440
   A11        2.09439   0.00000   0.00000   0.00000   0.00000   2.09439
   A12        2.09440   0.00000   0.00000   0.00000   0.00000   2.09440
   A13        2.09439   0.00000   0.00000   0.00000   0.00000   2.09440
   A14        2.09440   0.00000   0.00000   0.00000   0.00000   2.09440
   A15        2.09439   0.00000   0.00000   0.00000   0.00000   2.09439
   A16        2.09440   0.00000   0.00000   0.00000   0.00000   2.09440
   A17        2.09440   0.00000   0.00000   0.00000   0.00000   2.09440
   A18        2.09439   0.00000   0.00000   0.00000   0.00000   2.09440
    D1        0.00000   0.00000   0.00000   0.00000   0.00000   0.00000
    D2       -3.14159   0.00000   0.00000   0.00000   0.00000  -3.14159
    D3        3.14159   0.00000   0.00000   0.00000   0.00000   3.14159
    D4        0.00000   0.00000   0.00000   0.00000   0.00000   0.00000
    D5        0.00000   0.00000   0.00000   0.00000   0.00000   0.00000
    D6       -3.14159   0.00000   0.00000   0.00000   0.00000  -3.14159
    D7       -3.14159   0.00000   0.00000   0.00000   0.00000  -3.14159
    D8        0.00000   0.00000   0.00000   0.00000   0.00000   0.00000
    D9        0.00000   0.00000   0.00000   0.00000   0.00000   0.00000
   D10        3.14159   0.00000   0.00000   0.00000   0.00000  -3.14159
   D11        3.14159   0.00000   0.00000   0.00000   0.00000   3.14159
   D12        0.00000   0.00000   0.00000   0.00000   0.00000   0.00000
   D13        0.00000   0.00000   0.00000   0.00000   0.00000   0.00000
   D14        3.14159   0.00000   0.00000   0.00000   0.00000   3.14159
   D15       -3.14159   0.00000   0.00000   0.00000   0.00000   3.14159
   D16        0.00000   0.00000   0.00000   0.00000   0.00000   0.00000
   D17        0.00000   0.00000   0.00000   0.00000   0.00000   0.00000
   D18        3.14159   0.00000   0.00000   0.00000   0.00000   3.14159
   D19       -3.14159   0.00000   0.00000   0.00000   0.00000  -3.14159
   D20        0.00000   0.00000   0.00000   0.00000   0.00000   0.00000
   D21        0.00000   0.00000   0.00000   0.00000   0.00000   0.00000
   D22       -3.14159   0.00000   0.00000   0.00000   0.00000   3.14159
   D23       -3.14159   0.00000   0.00000   0.00000   0.00000  -3.14159
   D24        0.00000   0.00000   0.00000   0.00000   0.00000   0.00000
         Item               Value     Threshold  Converged?
 Maximum Force            0.000000     0.000450     YES
 RMS     Force            0.000000     0.000300     YES
 Maximum Displacement     0.000001     0.001800     YES
 RMS     Displacement     0.000000     0.001200     YES
 Predicted change in Energy=-2.689654D-13
 Optimization completed.
    -- Stationary point found.
                           ----------------------------
                           !   Optimized Parameters   !
                           ! (Angstroms and Degrees)  !
 --------------------------                            --------------------------
 ! Name  Definition              Value          Derivative Info.                !
 --------------------------------------------------------------------------------
 ! R1    R(1,2)                  1.3989         -DE/DX =    0.0                 !
 ! R2    R(1,6)                  1.3989         -DE/DX =    0.0                 !
 ! R3    R(1,7)                  1.0873         -DE/DX =    0.0                 !
 ! R4    R(2,3)                  1.3989         -DE/DX =    0.0                 !
 ! R5    R(2,8)                  1.0873         -DE/DX =    0.0                 !
 ! R6    R(3,4)                  1.3989         -DE/DX =    0.0                 !
 ! R7    R(3,9)                  1.0873         -DE/DX =    0.0                 !
 ! R8    R(4,5)                  1.3989         -DE/DX =    0.0                 !
 ! R9    R(4,10)                 1.0873         -DE/DX =    0.0                 !
 ! R10   R(5,6)                  1.3989         -DE/DX =    0.0                 !
 ! R11   R(5,11)                 1.0873         -DE/DX =    0.0                 !
 ! R12   R(6,12)                 1.0873         -DE/DX =    0.0                 !
 ! A1    A(2,1,6)              120.0            -DE/DX =    0.0                 !
 ! A2    A(2,1,7)              120.0            -DE/DX =    0.0                 !
 ! A3    A(6,1,7)              120.0            -DE/DX =    0.0                 !
 ! A4    A(1,2,3)              120.0            -DE/DX =    0.0                 !
 ! A5    A(1,2,8)              120.0001         -DE/DX =    0.0                 !
 ! A6    A(3,2,8)              119.9999         -DE/DX =    0.0                 !
 ! A7    A(2,3,4)              120.0            -DE/DX =    0.0                 !
 ! A8    A(2,3,9)              120.0            -DE/DX =    0.0                 !
 ! A9    A(4,3,9)              120.0            -DE/DX =    0.0                 !
 ! A10   A(3,4,5)              120.0            -DE/DX =    0.0                 !
 ! A11   A(3,4,10)             120.0            -DE/DX =    0.0                 !
 ! A12   A(5,4,10)             120.0            -DE/DX =    0.0                 !
 ! A13   A(4,5,6)              120.0            -DE/DX =    0.0                 !
 ! A14   A(4,5,11)             120.0001         -DE/DX =    0.0                 !
 ! A15   A(6,5,11)             119.9999         -DE/DX =    0.0                 !
 ! A16   A(1,6,5)              120.0            -DE/DX =    0.0                 !
 ! A17   A(1,6,12)             120.0            -DE/DX =    0.0                 !
 ! A18   A(5,6,12)             120.0            -DE/DX =    0.0                 !
 ! D1    D(6,1,2,3)              0.0            -DE/DX =    0.0                 !
 ! D2    D(6,1,2,8)           -180.0            -DE/DX =    0.0                 !
 ! D3    D(7,1,2,3)            180.0            -DE/DX =    0.0                 !
 ! D4    D(7,1,2,8)              0.0            -DE/DX =    0.0                 !
 ! D5    D(2,1,6,5)              0.0            -DE/DX =    0.0                 !
 ! D6    D(2,1,6,12)          -180.0            -DE/DX =    0.0                 !
 ! D7    D(7,1,6,5)           -180.0            -DE/DX =    0.0                 !
 ! D8    D(7,1,6,12)             0.0            -DE/DX =    0.0                 !
 ! D9    D(1,2,3,4)              0.0            -DE/DX =    0.0                 !
 ! D10   D(1,2,3,9)           -180.0            -DE/DX =    0.0                 !
 ! D11   D(8,2,3,4)            180.0            -DE/DX =    0.0                 !
 ! D12   D(8,2,3,9)             -0.0001         -DE/DX =    0.0                 !
 ! D13   D(2,3,4,5)              0.0            -DE/DX =    0.0                 !
 ! D14   D(2,3,4,10)           180.0            -DE/DX =    0.0                 !
 ! D15   D(9,3,4,5)            180.0            -DE/DX =    0.0                 !
 ! D16   D(9,3,4,10)             0.0            -DE/DX =    0.0                 !
 ! D17   D(3,4,5,6)              0.0            -DE/DX =    0.0                 !
 ! D18   D(3,4,5,11)           180.0            -DE/DX =    0.0                 !
 ! D19   D(10,4,5,6)          -180.0            -DE/DX =    0.0                 !
 ! D20   D(10,4,5,11)            0.0            -DE/DX =    0.0                 !
 ! D21   D(4,5,6,1)              0.0            -DE/DX =    0.0                 !
 ! D22   D(4,5,6,12)           180.0            -DE/DX =    0.0                 !
 ! D23   D(11,5,6,1)          -179.9999         -DE/DX =    0.0                 !
 ! D24   D(11,5,6,12)            0.0            -DE/DX =    0.0                 !
 --------------------------------------------------------------------------------
 GradGradGradGradGradGradGradGradGradGradGradGradGradGradGradGradGradGrad

 Leave Link  103 at Mon Feb 29 16:29:19 2016, MaxMem= 1610612736 cpu:       0.1
 (Enter /usr/local/gaussian/g09/l9999.exe)

 Test job not archived.
 1\1\GINC-BOONLAY-C07\Freq\RB3LYP\Gen\C6H6\RWANG013\29-Feb-2016\0\\#p i
 nt=ultrafine geom=allcheck nosymm guess=tcheck test genchk b3lyp/chkba
 s freq=noraman iop(7/33=1)\\opt-title\\0,1\C,-0.1960660323,0.083954610
 3,0.0000603594\C,1.2028250763,0.083884471,0.0005060189\C,1.902331654,1
 .2953250354,-0.0000471364\C,1.2029467077,2.506835148,-0.0010455962\C,-
 0.1959444094,2.5069053169,-0.0014910918\C,-0.8954509972,1.2954647382,-
 0.0009382991\H,-0.7397513458,-0.8576259342,0.0004899871\H,1.7464164212
 ,-0.8577500156,0.0012814516\H,2.9896068228,1.2952706254,0.0002992971\H
 ,1.7466322779,3.4484155332,-0.0014750375\H,-0.7395361242,3.4485395988,
 -0.0022663791\H,-1.9827261712,1.295519561,-0.0012845739\\Version=EM64L
 -G09RevB.01\HF=-232.2543958\RMSD=5.277e-09\RMSF=1.045e-07\ZeroPoint=0.
 1005912\Thermal=0.1049891\Dipole=0.0000017,-0.0000002,0.0000001\Dipole
 Deriv=-0.0065115,0.0656216,0.0000006,0.0656488,0.0693079,-0.0001138,0.
 0000013,-0.0001142,-0.1421148,-0.006524,-0.0656148,0.0000848,-0.065640
 9,0.0693205,-0.0001567,0.0000849,-0.0001559,-0.1421153,0.10718,-0.0000
 077,0.0000802,-0.0000075,-0.0444911,-0.0000627,0.0000796,-0.0000628,-0
 .1421051,-0.0065105,0.0656228,0.0000006,0.0656485,0.0693079,-0.0001137
 ,0.0000013,-0.0001141,-0.1421152,-0.0065249,-0.0656138,0.0000847,-0.06
 56411,0.0693202,-0.0001566,0.000085,-0.000156,-0.1421148,0.1071785,-0.
 0000078,0.0000802,-0.0000075,-0.0444918,-0.0000627,0.0000793,-0.000062
 8,-0.1421042,0.0157859,-0.0817146,0.0000121,-0.0817166,-0.0785419,0.00
 01152,0.000012,0.0001152,0.1421147,0.0158022,0.0817052,-0.0000924,0.08
 1707,-0.0785581,0.0001673,-0.0000923,0.0001672,0.1421147,-0.1257322,0.
 0000094,-0.0000852,0.0000094,0.062963,0.0000506,-0.0000855,0.0000506,0
 .1421054,0.0157858,-0.0817148,0.0000121,-0.0817166,-0.0785421,0.000115
 2,0.000012,0.0001151,0.1421147,0.0158023,0.0817051,-0.0000924,0.081706
 9,-0.0785578,0.0001672,-0.0000924,0.0001672,0.1421146,-0.1257316,0.000
 0095,-0.0000853,0.0000096,0.0629632,0.0000506,-0.0000854,0.0000506,0.1
 421053\Polar=78.6500933,0.0000018,78.6479389,0.0119773,-0.0241144,40.9
 906038\PG=C01 [X(C6H6)]\NImag=0\\0.68405314,0.03258093,0.72164611,0.00
 015463,-0.00036644,0.13353261,-0.33669480,-0.03196440,-0.00006698,0.68
 404670,0.03198515,-0.12896396,0.00005304,-0.03257755,0.72165207,-0.000
 10800,0.00003276,-0.06218734,0.00019614,-0.00038705,0.13353269,-0.0262
 5717,-0.02874105,0.00000769,-0.18091117,-0.12191692,0.00004033,0.74042
 645,-0.07542511,0.03387009,-0.00004111,-0.05796294,-0.28477546,0.00012
 419,-0.00000406,0.66530828,0.00003759,-0.00002616,0.00720830,-0.000000
 66,0.00010381,-0.06217818,0.00019340,-0.00034086,0.13351554,-0.0508005
 2,0.02856153,-0.00003219,0.06394900,0.02333881,0.00000312,-0.18089326,
 0.05795286,-0.00007493,0.68405321,0.02856157,-0.01781052,0.00001604,-0
 .02335091,-0.05631198,0.00003322,0.12190687,-0.28479398,0.00018144,0.0
 3258098,0.72164601,-0.00003218,0.00001604,-0.00684968,0.00003301,0.000
 04812,0.00721402,-0.00011603,0.00016122,-0.06217819,0.00015460,-0.0003
 6635,0.13353264,0.06394898,-0.02335092,0.00003301,-0.05080623,-0.02855
 825,0.00000423,-0.02624675,0.07543111,-0.00005897,-0.33669480,-0.03196
 432,-0.00006695,0.68404677,0.02333883,-0.05631186,0.00004811,-0.028558
 22,-0.01780479,-0.00000209,0.02874705,0.03385966,-0.00000783,0.0319852
 1,-0.12896396,0.00005303,-0.03257760,0.72165204,0.00000312,0.00003323,
 0.00721401,0.00000423,-0.00000209,-0.00684967,-0.00002899,0.00000695,0
 .00720824,-0.00010797,0.00003275,-0.06218733,0.00019613,-0.00038694,0.
 13353263,-0.18089328,0.12190701,-0.00011605,-0.02624670,0.02874703,-0.
 00002900,-0.00134106,-0.00000330,0.00000173,-0.02625711,-0.02874101,0.
 00000768,-0.18091117,-0.12191711,0.00004030,0.74042652,0.05795295,-0.2
 8479404,0.00016127,0.07543110,0.03385965,0.00000695,-0.00000331,-0.067
 28104,0.00003875,-0.07542509,0.03387009,-0.00004110,-0.05796302,-0.284
 77555,0.00012412,-0.00000415,0.66530830,-0.00007494,0.00018147,-0.0621
 7815,-0.00005897,-0.00000783,0.00720824,0.00000173,0.00003875,-0.00684
 250,0.00003759,-0.00002616,0.00720830,-0.00000069,0.00010375,-0.062178
 15,0.00019341,-0.00034083,0.13351545,-0.12968919,-0.12039536,0.0000474
 0,-0.01073440,-0.02946198,0.00001446,-0.00568871,0.00163023,-0.0000051
 3,-0.00080273,0.00086299,-0.00000060,-0.00108906,0.00309332,-0.0000046
 0,0.01204167,0.01514338,-0.00000683,0.13405496,-0.12039583,-0.26867434
 ,0.00011027,0.00199713,0.00377673,0.00000018,0.00043865,0.00163733,0.0
 0000366,0.00086279,0.00019354,-0.00000025,0.00428523,-0.00296236,0.000
 00783,-0.01631543,-0.01899949,0.00000893,0.13000116,0.28412965,0.00004
 740,0.00011026,-0.03652453,-0.00000567,-0.00000984,0.00307188,-0.00000
 436,0.00000404,0.00713711,-0.00000061,-0.00000025,-0.00063399,-0.00000
 537,0.00000745,0.00713748,0.00001330,0.00001898,0.00307038,-0.00004864
 ,-0.00012419,0.02545753,-0.01073161,0.02946341,-0.00002325,-0.12966521
 ,0.12038157,-0.00010670,0.01204178,-0.01514651,0.00001255,-0.00108980,
 -0.00309352,-0.00000064,-0.00080291,-0.00086288,0.00000050,-0.00568891
 ,-0.00162951,-0.00000304,0.00106521,-0.00039663,0.00000186,0.13402901,
 -0.00199567,0.00377400,-0.00000109,0.12038198,-0.26869836,0.00018685,0
 .01631235,-0.01899965,0.00001931,-0.00428543,-0.00296162,0.00000510,-0
 .00086269,0.00019371,-0.00000080,-0.00043793,0.00163754,0.00000338,0.0
 0039661,0.00087282,-0.00000298,-0.12998621,0.28415564,-0.00000315,0.00
 000895,0.00307185,-0.00010667,0.00018681,-0.03652460,-0.00000758,0.000
 00932,0.00307040,0.00000013,0.00000548,0.00713748,0.00000050,-0.000000
 80,-0.00063399,-0.00000381,0.00000300,0.00713710,0.00000135,-0.0000032
 3,-0.00397759,0.00011776,-0.00020688,0.02545760,0.00070111,-0.00325161
 ,0.00000003,-0.01174686,0.00258064,-0.00000637,-0.33817482,0.00001391,
 -0.00009612,-0.01174423,-0.00257899,-0.00000307,0.00070164,0.00325106,
 -0.00000413,0.00069194,-0.00000010,0.00000042,-0.00068644,0.00019127,-
 0.00000042,0.00092105,-0.00031331,0.00000176,0.35917673,-0.00206000,-0
 .00475233,0.00000696,-0.02887820,0.00478759,-0.00001031,0.00001390,-0.
 06016235,0.00001515,0.02887986,0.00478496,0.00000809,0.00205945,-0.004
 75286,0.00000827,-0.00000010,-0.00130087,0.00000043,-0.00151972,0.0000
 8067,-0.00000038,0.00047998,0.00101728,-0.00000304,-0.00001502,0.05898
 372,-0.00000074,0.00000659,0.00713720,0.00001380,-0.00000027,0.0030722
 8,-0.00009611,0.00001510,-0.03651421,-0.00002323,-0.00000190,0.0030722
 8,-0.00000336,0.00000865,0.00713720,0.00000042,0.00000043,-0.00063401,
 0.00000068,0.00000017,0.00024348,0.00000125,-0.00000330,-0.00397788,0.
 00010633,-0.00002147,0.02544539,-0.00080274,0.00086298,-0.00000060,-0.
 00108906,0.00309333,-0.00000460,0.01204166,0.01514339,-0.00000683,-0.1
 2968926,-0.12039542,0.00004739,-0.01073441,-0.02946198,0.00001446,-0.0
 0568871,0.00163024,-0.00000513,0.00014355,-0.00012609,0.00000052,0.000
 46411,0.00085543,-0.00000048,0.00092104,-0.00047997,0.00000187,0.13405
 503,0.00086279,0.00019353,-0.00000025,0.00428524,-0.00296235,0.0000078
 3,-0.01631547,-0.01899956,0.00000893,-0.12039582,-0.26867423,0.0001102
 3,0.00199710,0.00377673,0.00000018,0.00043866,0.00163733,0.00000366,-0
 .00012609,-0.00000202,-0.00000084,-0.00085558,-0.00106983,0.00000057,0
 .00031333,0.00101729,-0.00000310,0.13000119,0.28412963,-0.00000061,-0.
 00000025,-0.00063399,-0.00000537,0.00000745,0.00713749,0.00001330,0.00
 001898,0.00307040,0.00004738,0.00011021,-0.03652456,-0.00000567,-0.000
 00984,0.00307187,-0.00000436,0.00000404,0.00713710,0.00000052,-0.00000
 084,-0.00124728,0.00000062,0.00000111,0.00024342,0.00000137,-0.0000033
 5,-0.00397788,-0.00004862,-0.00012414,0.02545753,-0.00108980,-0.003093
 51,-0.00000064,-0.00080290,-0.00086289,0.00000050,-0.00568891,-0.00162
 950,-0.00000304,-0.01073158,0.02946338,-0.00002324,-0.12966530,0.12038
 164,-0.00010668,0.01204178,-0.01514650,0.00001255,0.00046411,-0.000855
 58,0.00000062,0.00014358,0.00012607,0.00000036,-0.00068630,0.00151979,
 -0.00000127,0.00106521,-0.00039663,0.00000186,0.13402907,-0.00428541,-
 0.00296164,0.00000510,-0.00086269,0.00019371,-0.00000080,-0.00043792,0
 .00163753,0.00000338,-0.00199570,0.00377403,-0.00000109,0.12038207,-0.
 26869833,0.00018681,0.01631232,-0.01899959,0.00001931,0.00085543,-0.00
 106982,0.00000111,0.00012607,-0.00000205,-0.00000076,-0.00019120,0.000
 08054,0.00000004,0.00039661,0.00087282,-0.00000298,-0.12998626,0.28415
 552,0.00000013,0.00000548,0.00713747,0.00000050,-0.00000080,-0.0006339
 9,-0.00000381,0.00000300,0.00713710,-0.00000314,0.00000894,0.00307184,
 -0.00010666,0.00018677,-0.03652457,-0.00000758,0.00000931,0.00307039,-
 0.00000048,0.00000057,0.00024342,0.00000036,-0.00000076,-0.00124728,-0
 .00000017,0.00000059,0.00024348,0.00000135,-0.00000323,-0.00397759,0.0
 0011774,-0.00020684,0.02545759,-0.01174412,-0.00257901,-0.00000307,0.0
 0070162,0.00325106,-0.00000413,0.00069196,-0.00000010,0.00000042,0.000
 70108,-0.00325162,0.00000003,-0.01174678,0.00258067,-0.00000636,-0.338
 17495,0.00001401,-0.00009609,0.00092104,0.00031332,0.00000137,-0.00068
 630,-0.00019120,-0.00000017,-0.00007487,0.00000001,0.00000037,-0.00068
 644,0.00019127,-0.00000042,0.00092105,-0.00031331,0.00000176,0.3591767
 0,0.02887980,0.00478497,0.00000809,0.00205946,-0.00475285,0.00000827,-
 0.00000010,-0.00130086,0.00000043,-0.00206001,-0.00475232,0.00000696,-
 0.02887815,0.00478759,-0.00001030,0.00001401,-0.06016233,0.00001515,-0
 .00047997,0.00101729,-0.00000335,0.00151979,0.00008054,0.00000059,0.00
 000001,0.00021636,-0.00000094,-0.00151972,0.00008067,-0.00000038,0.000
 47998,0.00101728,-0.00000304,-0.00001511,0.05898367,-0.00002324,-0.000
 00190,0.00307225,-0.00000336,0.00000866,0.00713719,0.00000043,0.000000
 42,-0.00063401,-0.00000075,0.00000658,0.00713719,0.00001379,-0.0000002
 7,0.00307227,-0.00009606,0.00001509,-0.03651416,0.00000187,-0.00000310
 ,-0.00397788,-0.00000127,0.00000004,0.00024348,0.00000037,-0.00000094,
 -0.00124732,0.00000068,0.00000017,0.00024348,0.00000125,-0.00000330,-0
 .00397787,0.00010629,-0.00002146,0.02544537\\-0.00000022,0.00000029,-0
 .00000002,0.00000005,-0.00000022,0.00000003,0.,0.00000021,-0.00000004,
 0.00000013,-0.00000020,0.00000002,-0.00000012,0.00000013,0.00000001,0.
 00000009,-0.00000021,0.,0.00000008,-0.00000006,0.,0.,0.00000001,-0.000
 00003,0.00000002,0.,0.,-0.00000003,0.00000005,0.,0.,-0.00000004,0.0000
 0003,0.00000002,0.00000005,0.\\\@


 LET US LEARN TO DREAM, GENTLEMEN, THEN PERHAPS WE SHALL
 DISCOVER THE TRUTH;  BUT LET US BEWARE OF PUBLISHING
 OUR DREAMS ABROAD BEFORE THEY HAVE BEEN SCRUTINIZED
 BY OUR VIGILANT INTELLECT ... LET US ALWAYS ALLOW
 THE FRUIT TO HANG UNTIL IT IS RIPE.  UNRIPE FRUIT
 BRINGS EVEN THE GROWER BUT LITTLE PROFIT; IT DAMAGES
 THE HEALTH OF THOSE WHO CONSUME IT; IT ENDANGERS
 PARTICULARLY THE YOUTH WHO CANNOT YET DISTINGUISH
 BETWEEN RIPE AND UNRIPE FRUIT.

                                  -- KEKULE, 1890
 Job cpu time:  0 days  0 hours  9 minutes  1.3 seconds.
 File lengths (MBytes):  RWF=     30 Int=      0 D2E=      0 Chk=      2 Scr=      1
 Normal termination of Gaussian 09 at Mon Feb 29 16:29:19 2016.
